ITEM: TIMESTEP
0
ITEM: NUMBER OF ATOMS
4000
ITEM: BOX BOUNDS pp pp pp
0.0000000000000000e+00 1.6795961913825074e+01
0.0000000000000000e+00 1.6795961913825074e+01
0.0000000000000000e+00 1.6795961913825074e+01
ITEM: ATOMS id type xs ys zs
1 1 0 0 0
2 1 0.05 0.05 0
3 1 0.05 0 0.05
4 1 0 0.05 0.05
5 1 0.1 0 0
8 1 0.1 0.05 0.05
21 1 0 0.1 0
23 1 0.05 0.1 0.05
25 1 0.1 0.1 0
101 1 0 0 0.1
102 1 0.05 0.05 0.1
105 1 0.1 0 0.1
121 1 0 0.1 0.1
125 1 0.1 0.1 0.1
6 1 0.15 0.05 0
7 1 0.15 0 0.05
9 1 0.2 0 0
12 1 0.2 0.05 0.05
27 1 0.15 0.1 0.05
29 1 0.2 0.1 0
106 1 0.15 0.05 0.1
109 1 0.2 0 0.1
129 1 0.2 0.1 0.1
10 1 0.25 0.05 0
11 1 0.25 0 0.05
13 1 0.3 0 0
16 1 0.3 0.05 0.05
31 1 0.25 0.1 0.05
33 1 0.3 0.1 0
110 1 0.25 0.05 0.1
113 1 0.3 0 0.1
133 1 0.3 0.1 0.1
14 1 0.35 0.05 0
15 1 0.35 0 0.05
17 1 0.4 0 0
20 1 0.4 0.05 0.05
35 1 0.35 0.1 0.05
37 1 0.4 0.1 0
114 1 0.35 0.05 0.1
117 1 0.4 0 0.1
137 1 0.4 0.1 0.1
18 1 0.45 0.05 0
19 1 0.45 0 0.05
39 1 0.45 0.1 0.05
118 1 0.45 0.05 0.1
22 1 0.05 0.15 0
24 1 0 0.15 0.05
28 1 0.1 0.15 0.05
41 1 0 0.2 0
43 1 0.05 0.2 0.05
45 1 0.1 0.2 0
122 1 0.05 0.15 0.1
141 1 0 0.2 0.1
145 1 0.1 0.2 0.1
26 1 0.15 0.15 0
32 1 0.2 0.15 0.05
47 1 0.15 0.2 0.05
49 1 0.2 0.2 0
126 1 0.15 0.15 0.1
149 1 0.2 0.2 0.1
30 1 0.25 0.15 0
36 1 0.3 0.15 0.05
51 1 0.25 0.2 0.05
53 1 0.3 0.2 0
130 1 0.25 0.15 0.1
153 1 0.3 0.2 0.1
34 1 0.35 0.15 0
40 1 0.4 0.15 0.05
55 1 0.35 0.2 0.05
57 1 0.4 0.2 0
134 1 0.35 0.15 0.1
157 1 0.4 0.2 0.1
38 1 0.45 0.15 0
59 1 0.45 0.2 0.05
138 1 0.45 0.15 0.1
42 1 0.05 0.25 0
44 1 0 0.25 0.05
48 1 0.1 0.25 0.05
61 1 0 0.3 0
63 1 0.05 0.3 0.05
65 1 0.1 0.3 0
142 1 0.05 0.25 0.1
161 1 0 0.3 0.1
165 1 0.1 0.3 0.1
46 1 0.15 0.25 0
52 1 0.2 0.25 0.05
67 1 0.15 0.3 0.05
69 1 0.2 0.3 0
146 1 0.15 0.25 0.1
169 1 0.2 0.3 0.1
50 1 0.25 0.25 0
56 1 0.3 0.25 0.05
71 1 0.25 0.3 0.05
73 1 0.3 0.3 0
150 1 0.25 0.25 0.1
173 1 0.3 0.3 0.1
54 1 0.35 0.25 0
60 1 0.4 0.25 0.05
75 1 0.35 0.3 0.05
77 1 0.4 0.3 0
154 1 0.35 0.25 0.1
177 1 0.4 0.3 0.1
58 1 0.45 0.25 0
79 1 0.45 0.3 0.05
158 1 0.45 0.25 0.1
62 1 0.05 0.35 0
64 1 0 0.35 0.05
68 1 0.1 0.35 0.05
81 1 0 0.4 0
83 1 0.05 0.4 0.05
85 1 0.1 0.4 0
162 1 0.05 0.35 0.1
181 1 0 0.4 0.1
185 1 0.1 0.4 0.1
66 1 0.15 0.35 0
72 1 0.2 0.35 0.05
87 1 0.15 0.4 0.05
89 1 0.2 0.4 0
166 1 0.15 0.35 0.1
189 1 0.2 0.4 0.1
70 1 0.25 0.35 0
76 1 0.3 0.35 0.05
91 1 0.25 0.4 0.05
93 1 0.3 0.4 0
170 1 0.25 0.35 0.1
193 1 0.3 0.4 0.1
74 1 0.35 0.35 0
80 1 0.4 0.35 0.05
95 1 0.35 0.4 0.05
97 1 0.4 0.4 0
174 1 0.35 0.35 0.1
197 1 0.4 0.4 0.1
78 1 0.45 0.35 0
99 1 0.45 0.4 0.05
178 1 0.45 0.35 0.1
82 1 0.05 0.45 0
84 1 0 0.45 0.05
88 1 0.1 0.45 0.05
182 1 0.05 0.45 0.1
86 1 0.15 0.45 0
92 1 0.2 0.45 0.05
186 1 0.15 0.45 0.1
90 1 0.25 0.45 0
96 1 0.3 0.45 0.05
190 1 0.25 0.45 0.1
94 1 0.35 0.45 0
100 1 0.4 0.45 0.05
194 1 0.35 0.45 0.1
98 1 0.45 0.45 0
198 1 0.45 0.45 0.1
103 1 0.05 0 0.15
104 1 0 0.05 0.15
108 1 0.1 0.05 0.15
123 1 0.05 0.1 0.15
201 1 0 0 0.2
202 1 0.05 0.05 0.2
205 1 0.1 0 0.2
221 1 0 0.1 0.2
225 1 0.1 0.1 0.2
107 1 0.15 0 0.15
112 1 0.2 0.05 0.15
127 1 0.15 0.1 0.15
206 1 0.15 0.05 0.2
209 1 0.2 0 0.2
229 1 0.2 0.1 0.2
111 1 0.25 0 0.15
116 1 0.3 0.05 0.15
131 1 0.25 0.1 0.15
210 1 0.25 0.05 0.2
213 1 0.3 0 0.2
233 1 0.3 0.1 0.2
115 1 0.35 0 0.15
120 1 0.4 0.05 0.15
135 1 0.35 0.1 0.15
214 1 0.35 0.05 0.2
217 1 0.4 0 0.2
237 1 0.4 0.1 0.2
119 1 0.45 0 0.15
139 1 0.45 0.1 0.15
218 1 0.45 0.05 0.2
124 1 0 0.15 0.15
128 1 0.1 0.15 0.15
143 1 0.05 0.2 0.15
222 1 0.05 0.15 0.2
241 1 0 0.2 0.2
245 1 0.1 0.2 0.2
132 1 0.2 0.15 0.15
147 1 0.15 0.2 0.15
226 1 0.15 0.15 0.2
249 1 0.2 0.2 0.2
136 1 0.3 0.15 0.15
151 1 0.25 0.2 0.15
230 1 0.25 0.15 0.2
253 1 0.3 0.2 0.2
140 1 0.4 0.15 0.15
155 1 0.35 0.2 0.15
234 1 0.35 0.15 0.2
257 1 0.4 0.2 0.2
159 1 0.45 0.2 0.15
238 1 0.45 0.15 0.2
144 1 0 0.25 0.15
148 1 0.1 0.25 0.15
163 1 0.05 0.3 0.15
242 1 0.05 0.25 0.2
261 1 0 0.3 0.2
265 1 0.1 0.3 0.2
152 1 0.2 0.25 0.15
167 1 0.15 0.3 0.15
246 1 0.15 0.25 0.2
269 1 0.2 0.3 0.2
156 1 0.3 0.25 0.15
171 1 0.25 0.3 0.15
250 1 0.25 0.25 0.2
273 1 0.3 0.3 0.2
160 1 0.4 0.25 0.15
175 1 0.35 0.3 0.15
254 1 0.35 0.25 0.2
277 1 0.4 0.3 0.2
179 1 0.45 0.3 0.15
258 1 0.45 0.25 0.2
164 1 0 0.35 0.15
168 1 0.1 0.35 0.15
183 1 0.05 0.4 0.15
262 1 0.05 0.35 0.2
281 1 0 0.4 0.2
285 1 0.1 0.4 0.2
172 1 0.2 0.35 0.15
187 1 0.15 0.4 0.15
266 1 0.15 0.35 0.2
289 1 0.2 0.4 0.2
176 1 0.3 0.35 0.15
191 1 0.25 0.4 0.15
270 1 0.25 0.35 0.2
293 1 0.3 0.4 0.2
180 1 0.4 0.35 0.15
195 1 0.35 0.4 0.15
274 1 0.35 0.35 0.2
297 1 0.4 0.4 0.2
199 1 0.45 0.4 0.15
278 1 0.45 0.35 0.2
184 1 0 0.45 0.15
188 1 0.1 0.45 0.15
282 1 0.05 0.45 0.2
192 1 0.2 0.45 0.15
286 1 0.15 0.45 0.2
196 1 0.3 0.45 0.15
290 1 0.25 0.45 0.2
200 1 0.4 0.45 0.15
294 1 0.35 0.45 0.2
298 1 0.45 0.45 0.2
203 1 0.05 0 0.25
204 1 0 0.05 0.25
208 1 0.1 0.05 0.25
223 1 0.05 0.1 0.25
301 1 0 0 0.3
302 1 0.05 0.05 0.3
305 1 0.1 0 0.3
321 1 0 0.1 0.3
325 1 0.1 0.1 0.3
207 1 0.15 0 0.25
212 1 0.2 0.05 0.25
227 1 0.15 0.1 0.25
306 1 0.15 0.05 0.3
309 1 0.2 0 0.3
329 1 0.2 0.1 0.3
211 1 0.25 0 0.25
216 1 0.3 0.05 0.25
231 1 0.25 0.1 0.25
310 1 0.25 0.05 0.3
313 1 0.3 0 0.3
333 1 0.3 0.1 0.3
215 1 0.35 0 0.25
220 1 0.4 0.05 0.25
235 1 0.35 0.1 0.25
314 1 0.35 0.05 0.3
317 1 0.4 0 0.3
337 1 0.4 0.1 0.3
219 1 0.45 0 0.25
239 1 0.45 0.1 0.25
318 1 0.45 0.05 0.3
224 1 0 0.15 0.25
228 1 0.1 0.15 0.25
243 1 0.05 0.2 0.25
322 1 0.05 0.15 0.3
341 1 0 0.2 0.3
345 1 0.1 0.2 0.3
232 1 0.2 0.15 0.25
247 1 0.15 0.2 0.25
326 1 0.15 0.15 0.3
349 1 0.2 0.2 0.3
236 1 0.3 0.15 0.25
251 1 0.25 0.2 0.25
330 1 0.25 0.15 0.3
353 1 0.3 0.2 0.3
240 1 0.4 0.15 0.25
255 1 0.35 0.2 0.25
334 1 0.35 0.15 0.3
357 1 0.4 0.2 0.3
259 1 0.45 0.2 0.25
338 1 0.45 0.15 0.3
244 1 0 0.25 0.25
248 1 0.1 0.25 0.25
263 1 0.05 0.3 0.25
342 1 0.05 0.25 0.3
361 1 0 0.3 0.3
365 1 0.1 0.3 0.3
252 1 0.2 0.25 0.25
267 1 0.15 0.3 0.25
346 1 0.15 0.25 0.3
369 1 0.2 0.3 0.3
256 1 0.3 0.25 0.25
271 1 0.25 0.3 0.25
350 1 0.25 0.25 0.3
373 1 0.3 0.3 0.3
260 1 0.4 0.25 0.25
275 1 0.35 0.3 0.25
354 1 0.35 0.25 0.3
377 1 0.4 0.3 0.3
279 1 0.45 0.3 0.25
358 1 0.45 0.25 0.3
264 1 0 0.35 0.25
268 1 0.1 0.35 0.25
283 1 0.05 0.4 0.25
362 1 0.05 0.35 0.3
381 1 0 0.4 0.3
385 1 0.1 0.4 0.3
272 1 0.2 0.35 0.25
287 1 0.15 0.4 0.25
366 1 0.15 0.35 0.3
389 1 0.2 0.4 0.3
276 1 0.3 0.35 0.25
291 1 0.25 0.4 0.25
370 1 0.25 0.35 0.3
393 1 0.3 0.4 0.3
280 1 0.4 0.35 0.25
295 1 0.35 0.4 0.25
374 1 0.35 0.35 0.3
397 1 0.4 0.4 0.3
299 1 0.45 0.4 0.25
378 1 0.45 0.35 0.3
284 1 0 0.45 0.25
288 1 0.1 0.45 0.25
382 1 0.05 0.45 0.3
292 1 0.2 0.45 0.25
386 1 0.15 0.45 0.3
296 1 0.3 0.45 0.25
390 1 0.25 0.45 0.3
300 1 0.4 0.45 0.25
394 1 0.35 0.45 0.3
398 1 0.45 0.45 0.3
303 1 0.05 0 0.35
304 1 0 0.05 0.35
308 1 0.1 0.05 0.35
323 1 0.05 0.1 0.35
401 1 0 0 0.4
402 1 0.05 0.05 0.4
405 1 0.1 0 0.4
421 1 0 0.1 0.4
425 1 0.1 0.1 0.4
307 1 0.15 0 0.35
312 1 0.2 0.05 0.35
327 1 0.15 0.1 0.35
406 1 0.15 0.05 0.4
409 1 0.2 0 0.4
429 1 0.2 0.1 0.4
311 1 0.25 0 0.35
316 1 0.3 0.05 0.35
331 1 0.25 0.1 0.35
410 1 0.25 0.05 0.4
413 1 0.3 0 0.4
433 1 0.3 0.1 0.4
315 1 0.35 0 0.35
320 1 0.4 0.05 0.35
335 1 0.35 0.1 0.35
414 1 0.35 0.05 0.4
417 1 0.4 0 0.4
437 1 0.4 0.1 0.4
319 1 0.45 0 0.35
339 1 0.45 0.1 0.35
418 1 0.45 0.05 0.4
324 1 0 0.15 0.35
328 1 0.1 0.15 0.35
343 1 0.05 0.2 0.35
422 1 0.05 0.15 0.4
441 1 0 0.2 0.4
445 1 0.1 0.2 0.4
332 1 0.2 0.15 0.35
347 1 0.15 0.2 0.35
426 1 0.15 0.15 0.4
449 1 0.2 0.2 0.4
336 1 0.3 0.15 0.35
351 1 0.25 0.2 0.35
430 1 0.25 0.15 0.4
453 1 0.3 0.2 0.4
340 1 0.4 0.15 0.35
355 1 0.35 0.2 0.35
434 1 0.35 0.15 0.4
457 1 0.4 0.2 0.4
359 1 0.45 0.2 0.35
438 1 0.45 0.15 0.4
344 1 0 0.25 0.35
348 1 0.1 0.25 0.35
363 1 0.05 0.3 0.35
442 1 0.05 0.25 0.4
461 1 0 0.3 0.4
465 1 0.1 0.3 0.4
352 1 0.2 0.25 0.35
367 1 0.15 0.3 0.35
446 1 0.15 0.25 0.4
469 1 0.2 0.3 0.4
356 1 0.3 0.25 0.35
371 1 0.25 0.3 0.35
450 1 0.25 0.25 0.4
473 1 0.3 0.3 0.4
360 1 0.4 0.25 0.35
375 1 0.35 0.3 0.35
454 1 0.35 0.25 0.4
477 1 0.4 0.3 0.4
379 1 0.45 0.3 0.35
458 1 0.45 0.25 0.4
364 1 0 0.35 0.35
368 1 0.1 0.35 0.35
383 1 0.05 0.4 0.35
462 1 0.05 0.35 0.4
481 1 0 0.4 0.4
485 1 0.1 0.4 0.4
372 1 0.2 0.35 0.35
387 1 0.15 0.4 0.35
466 1 0.15 0.35 0.4
489 1 0.2 0.4 0.4
376 1 0.3 0.35 0.35
391 1 0.25 0.4 0.35
470 1 0.25 0.35 0.4
493 1 0.3 0.4 0.4
380 1 0.4 0.35 0.35
395 1 0.35 0.4 0.35
474 1 0.35 0.35 0.4
497 1 0.4 0.4 0.4
399 1 0.45 0.4 0.35
478 1 0.45 0.35 0.4
384 1 0 0.45 0.35
388 1 0.1 0.45 0.35
482 1 0.05 0.45 0.4
392 1 0.2 0.45 0.35
486 1 0.15 0.45 0.4
396 1 0.3 0.45 0.35
490 1 0.25 0.45 0.4
400 1 0.4 0.45 0.35
494 1 0.35 0.45 0.4
498 1 0.45 0.45 0.4
403 1 0.05 0 0.45
404 1 0 0.05 0.45
408 1 0.1 0.05 0.45
423 1 0.05 0.1 0.45
407 1 0.15 0 0.45
412 1 0.2 0.05 0.45
427 1 0.15 0.1 0.45
411 1 0.25 0 0.45
416 1 0.3 0.05 0.45
431 1 0.25 0.1 0.45
415 1 0.35 0 0.45
420 1 0.4 0.05 0.45
435 1 0.35 0.1 0.45
419 1 0.45 0 0.45
439 1 0.45 0.1 0.45
424 1 0 0.15 0.45
428 1 0.1 0.15 0.45
443 1 0.05 0.2 0.45
432 1 0.2 0.15 0.45
447 1 0.15 0.2 0.45
436 1 0.3 0.15 0.45
451 1 0.25 0.2 0.45
440 1 0.4 0.15 0.45
455 1 0.35 0.2 0.45
459 1 0.45 0.2 0.45
444 1 0 0.25 0.45
448 1 0.1 0.25 0.45
463 1 0.05 0.3 0.45
452 1 0.2 0.25 0.45
467 1 0.15 0.3 0.45
456 1 0.3 0.25 0.45
471 1 0.25 0.3 0.45
460 1 0.4 0.25 0.45
475 1 0.35 0.3 0.45
479 1 0.45 0.3 0.45
464 1 0 0.35 0.45
468 1 0.1 0.35 0.45
483 1 0.05 0.4 0.45
472 1 0.2 0.35 0.45
487 1 0.15 0.4 0.45
476 1 0.3 0.35 0.45
491 1 0.25 0.4 0.45
480 1 0.4 0.35 0.45
495 1 0.35 0.4 0.45
499 1 0.45 0.4 0.45
484 1 0 0.45 0.45
488 1 0.1 0.45 0.45
492 1 0.2 0.45 0.45
496 1 0.3 0.45 0.45
500 1 0.4 0.45 0.45
501 1 0 0 0.5
502 1 0.05 0.05 0.5
503 1 0.05 0 0.55
504 1 0 0.05 0.55
505 1 0.1 0 0.5
508 1 0.1 0.05 0.55
521 1 0 0.1 0.5
523 1 0.05 0.1 0.55
525 1 0.1 0.1 0.5
601 1 0 0 0.6
602 1 0.05 0.05 0.6
605 1 0.1 0 0.6
621 1 0 0.1 0.6
625 1 0.1 0.1 0.6
506 1 0.15 0.05 0.5
507 1 0.15 0 0.55
509 1 0.2 0 0.5
512 1 0.2 0.05 0.55
527 1 0.15 0.1 0.55
529 1 0.2 0.1 0.5
606 1 0.15 0.05 0.6
609 1 0.2 0 0.6
629 1 0.2 0.1 0.6
510 1 0.25 0.05 0.5
511 1 0.25 0 0.55
513 1 0.3 0 0.5
516 1 0.3 0.05 0.55
531 1 0.25 0.1 0.55
533 1 0.3 0.1 0.5
610 1 0.25 0.05 0.6
613 1 0.3 0 0.6
633 1 0.3 0.1 0.6
514 1 0.35 0.05 0.5
515 1 0.35 0 0.55
517 1 0.4 0 0.5
520 1 0.4 0.05 0.55
535 1 0.35 0.1 0.55
537 1 0.4 0.1 0.5
614 1 0.35 0.05 0.6
617 1 0.4 0 0.6
637 1 0.4 0.1 0.6
518 1 0.45 0.05 0.5
519 1 0.45 0 0.55
539 1 0.45 0.1 0.55
618 1 0.45 0.05 0.6
522 1 0.05 0.15 0.5
524 1 0 0.15 0.55
528 1 0.1 0.15 0.55
541 1 0 0.2 0.5
543 1 0.05 0.2 0.55
545 1 0.1 0.2 0.5
622 1 0.05 0.15 0.6
641 1 0 0.2 0.6
645 1 0.1 0.2 0.6
526 1 0.15 0.15 0.5
532 1 0.2 0.15 0.55
547 1 0.15 0.2 0.55
549 1 0.2 0.2 0.5
626 1 0.15 0.15 0.6
649 1 0.2 0.2 0.6
530 1 0.25 0.15 0.5
536 1 0.3 0.15 0.55
551 1 0.25 0.2 0.55
553 1 0.3 0.2 0.5
630 1 0.25 0.15 0.6
653 1 0.3 0.2 0.6
534 1 0.35 0.15 0.5
540 1 0.4 0.15 0.55
555 1 0.35 0.2 0.55
557 1 0.4 0.2 0.5
634 1 0.35 0.15 0.6
657 1 0.4 0.2 0.6
538 1 0.45 0.15 0.5
559 1 0.45 0.2 0.55
638 1 0.45 0.15 0.6
542 1 0.05 0.25 0.5
544 1 0 0.25 0.55
548 1 0.1 0.25 0.55
561 1 0 0.3 0.5
563 1 0.05 0.3 0.55
565 1 0.1 0.3 0.5
642 1 0.05 0.25 0.6
661 1 0 0.3 0.6
665 1 0.1 0.3 0.6
546 1 0.15 0.25 0.5
552 1 0.2 0.25 0.55
567 1 0.15 0.3 0.55
569 1 0.2 0.3 0.5
646 1 0.15 0.25 0.6
669 1 0.2 0.3 0.6
550 1 0.25 0.25 0.5
556 1 0.3 0.25 0.55
571 1 0.25 0.3 0.55
573 1 0.3 0.3 0.5
650 1 0.25 0.25 0.6
673 1 0.3 0.3 0.6
554 1 0.35 0.25 0.5
560 1 0.4 0.25 0.55
575 1 0.35 0.3 0.55
577 1 0.4 0.3 0.5
654 1 0.35 0.25 0.6
677 1 0.4 0.3 0.6
558 1 0.45 0.25 0.5
579 1 0.45 0.3 0.55
658 1 0.45 0.25 0.6
562 1 0.05 0.35 0.5
564 1 0 0.35 0.55
568 1 0.1 0.35 0.55
581 1 0 0.4 0.5
583 1 0.05 0.4 0.55
585 1 0.1 0.4 0.5
662 1 0.05 0.35 0.6
681 1 0 0.4 0.6
685 1 0.1 0.4 0.6
566 1 0.15 0.35 0.5
572 1 0.2 0.35 0.55
587 1 0.15 0.4 0.55
589 1 0.2 0.4 0.5
666 1 0.15 0.35 0.6
689 1 0.2 0.4 0.6
570 1 0.25 0.35 0.5
576 1 0.3 0.35 0.55
591 1 0.25 0.4 0.55
593 1 0.3 0.4 0.5
670 1 0.25 0.35 0.6
693 1 0.3 0.4 0.6
574 1 0.35 0.35 0.5
580 1 0.4 0.35 0.55
595 1 0.35 0.4 0.55
597 1 0.4 0.4 0.5
674 1 0.35 0.35 0.6
697 1 0.4 0.4 0.6
578 1 0.45 0.35 0.5
599 1 0.45 0.4 0.55
678 1 0.45 0.35 0.6
582 1 0.05 0.45 0.5
584 1 0 0.45 0.55
588 1 0.1 0.45 0.55
682 1 0.05 0.45 0.6
586 1 0.15 0.45 0.5
592 1 0.2 0.45 0.55
686 1 0.15 0.45 0.6
590 1 0.25 0.45 0.5
596 1 0.3 0.45 0.55
690 1 0.25 0.45 0.6
594 1 0.35 0.45 0.5
600 1 0.4 0.45 0.55
694 1 0.35 0.45 0.6
598 1 0.45 0.45 0.5
698 1 0.45 0.45 0.6
603 1 0.05 0 0.65
604 1 0 0.05 0.65
608 1 0.1 0.05 0.65
623 1 0.05 0.1 0.65
701 1 0 0 0.7
702 1 0.05 0.05 0.7
705 1 0.1 0 0.7
721 1 0 0.1 0.7
725 1 0.1 0.1 0.7
607 1 0.15 0 0.65
612 1 0.2 0.05 0.65
627 1 0.15 0.1 0.65
706 1 0.15 0.05 0.7
709 1 0.2 0 0.7
729 1 0.2 0.1 0.7
611 1 0.25 0 0.65
616 1 0.3 0.05 0.65
631 1 0.25 0.1 0.65
710 1 0.25 0.05 0.7
713 1 0.3 0 0.7
733 1 0.3 0.1 0.7
615 1 0.35 0 0.65
620 1 0.4 0.05 0.65
635 1 0.35 0.1 0.65
714 1 0.35 0.05 0.7
717 1 0.4 0 0.7
737 1 0.4 0.1 0.7
619 1 0.45 0 0.65
639 1 0.45 0.1 0.65
718 1 0.45 0.05 0.7
624 1 0 0.15 0.65
628 1 0.1 0.15 0.65
643 1 0.05 0.2 0.65
722 1 0.05 0.15 0.7
741 1 0 0.2 0.7
745 1 0.1 0.2 0.7
632 1 0.2 0.15 0.65
647 1 0.15 0.2 0.65
726 1 0.15 0.15 0.7
749 1 0.2 0.2 0.7
636 1 0.3 0.15 0.65
651 1 0.25 0.2 0.65
730 1 0.25 0.15 0.7
753 1 0.3 0.2 0.7
640 1 0.4 0.15 0.65
655 1 0.35 0.2 0.65
734 1 0.35 0.15 0.7
757 1 0.4 0.2 0.7
659 1 0.45 0.2 0.65
738 1 0.45 0.15 0.7
644 1 0 0.25 0.65
648 1 0.1 0.25 0.65
663 1 0.05 0.3 0.65
742 1 0.05 0.25 0.7
761 1 0 0.3 0.7
765 1 0.1 0.3 0.7
652 1 0.2 0.25 0.65
667 1 0.15 0.3 0.65
746 1 0.15 0.25 0.7
769 1 0.2 0.3 0.7
656 1 0.3 0.25 0.65
671 1 0.25 0.3 0.65
750 1 0.25 0.25 0.7
773 1 0.3 0.3 0.7
660 1 0.4 0.25 0.65
675 1 0.35 0.3 0.65
754 1 0.35 0.25 0.7
777 1 0.4 0.3 0.7
679 1 0.45 0.3 0.65
758 1 0.45 0.25 0.7
664 1 0 0.35 0.65
668 1 0.1 0.35 0.65
683 1 0.05 0.4 0.65
762 1 0.05 0.35 0.7
781 1 0 0.4 0.7
785 1 0.1 0.4 0.7
672 1 0.2 0.35 0.65
687 1 0.15 0.4 0.65
766 1 0.15 0.35 0.7
789 1 0.2 0.4 0.7
676 1 0.3 0.35 0.65
691 1 0.25 0.4 0.65
770 1 0.25 0.35 0.7
793 1 0.3 0.4 0.7
680 1 0.4 0.35 0.65
695 1 0.35 0.4 0.65
774 1 0.35 0.35 0.7
797 1 0.4 0.4 0.7
699 1 0.45 0.4 0.65
778 1 0.45 0.35 0.7
684 1 0 0.45 0.65
688 1 0.1 0.45 0.65
782 1 0.05 0.45 0.7
692 1 0.2 0.45 0.65
786 1 0.15 0.45 0.7
696 1 0.3 0.45 0.65
790 1 0.25 0.45 0.7
700 1 0.4 0.45 0.65
794 1 0.35 0.45 0.7
798 1 0.45 0.45 0.7
703 1 0.05 0 0.75
704 1 0 0.05 0.75
708 1 0.1 0.05 0.75
723 1 0.05 0.1 0.75
801 1 0 0 0.8
802 1 0.05 0.05 0.8
805 1 0.1 0 0.8
821 1 0 0.1 0.8
825 1 0.1 0.1 0.8
707 1 0.15 0 0.75
712 1 0.2 0.05 0.75
727 1 0.15 0.1 0.75
806 1 0.15 0.05 0.8
809 1 0.2 0 0.8
829 1 0.2 0.1 0.8
711 1 0.25 0 0.75
716 1 0.3 0.05 0.75
731 1 0.25 0.1 0.75
810 1 0.25 0.05 0.8
813 1 0.3 0 0.8
833 1 0.3 0.1 0.8
715 1 0.35 0 0.75
720 1 0.4 0.05 0.75
735 1 0.35 0.1 0.75
814 1 0.35 0.05 0.8
817 1 0.4 0 0.8
837 1 0.4 0.1 0.8
719 1 0.45 0 0.75
739 1 0.45 0.1 0.75
818 1 0.45 0.05 0.8
724 1 0 0.15 0.75
728 1 0.1 0.15 0.75
743 1 0.05 0.2 0.75
822 1 0.05 0.15 0.8
841 1 0 0.2 0.8
845 1 0.1 0.2 0.8
732 1 0.2 0.15 0.75
747 1 0.15 0.2 0.75
826 1 0.15 0.15 0.8
849 1 0.2 0.2 0.8
736 1 0.3 0.15 0.75
751 1 0.25 0.2 0.75
830 1 0.25 0.15 0.8
853 1 0.3 0.2 0.8
740 1 0.4 0.15 0.75
755 1 0.35 0.2 0.75
834 1 0.35 0.15 0.8
857 1 0.4 0.2 0.8
759 1 0.45 0.2 0.75
838 1 0.45 0.15 0.8
744 1 0 0.25 0.75
748 1 0.1 0.25 0.75
763 1 0.05 0.3 0.75
842 1 0.05 0.25 0.8
861 1 0 0.3 0.8
865 1 0.1 0.3 0.8
752 1 0.2 0.25 0.75
767 1 0.15 0.3 0.75
846 1 0.15 0.25 0.8
869 1 0.2 0.3 0.8
756 1 0.3 0.25 0.75
771 1 0.25 0.3 0.75
850 1 0.25 0.25 0.8
873 1 0.3 0.3 0.8
760 1 0.4 0.25 0.75
775 1 0.35 0.3 0.75
854 1 0.35 0.25 0.8
877 1 0.4 0.3 0.8
779 1 0.45 0.3 0.75
858 1 0.45 0.25 0.8
764 1 0 0.35 0.75
768 1 0.1 0.35 0.75
783 1 0.05 0.4 0.75
862 1 0.05 0.35 0.8
881 1 0 0.4 0.8
885 1 0.1 0.4 0.8
772 1 0.2 0.35 0.75
787 1 0.15 0.4 0.75
866 1 0.15 0.35 0.8
889 1 0.2 0.4 0.8
776 1 0.3 0.35 0.75
791 1 0.25 0.4 0.75
870 1 0.25 0.35 0.8
893 1 0.3 0.4 0.8
780 1 0.4 0.35 0.75
795 1 0.35 0.4 0.75
874 1 0.35 0.35 0.8
897 1 0.4 0.4 0.8
799 1 0.45 0.4 0.75
878 1 0.45 0.35 0.8
784 1 0 0.45 0.75
788 1 0.1 0.45 0.75
882 1 0.05 0.45 0.8
792 1 0.2 0.45 0.75
886 1 0.15 0.45 0.8
796 1 0.3 0.45 0.75
890 1 0.25 0.45 0.8
800 1 0.4 0.45 0.75
894 1 0.35 0.45 0.8
898 1 0.45 0.45 0.8
803 1 0.05 0 0.85
804 1 0 0.05 0.85
808 1 0.1 0.05 0.85
823 1 0.05 0.1 0.85
901 1 0 0 0.9
902 1 0.05 0.05 0.9
905 1 0.1 0 0.9
921 1 0 0.1 0.9
925 1 0.1 0.1 0.9
807 1 0.15 0 0.85
812 1 0.2 0.05 0.85
827 1 0.15 0.1 0.85
906 1 0.15 0.05 0.9
909 1 0.2 0 0.9
929 1 0.2 0.1 0.9
811 1 0.25 0 0.85
816 1 0.3 0.05 0.85
831 1 0.25 0.1 0.85
910 1 0.25 0.05 0.9
913 1 0.3 0 0.9
933 1 0.3 0.1 0.9
815 1 0.35 0 0.85
820 1 0.4 0.05 0.85
835 1 0.35 0.1 0.85
914 1 0.35 0.05 0.9
917 1 0.4 0 0.9
937 1 0.4 0.1 0.9
819 1 0.45 0 0.85
839 1 0.45 0.1 0.85
918 1 0.45 0.05 0.9
824 1 0 0.15 0.85
828 1 0.1 0.15 0.85
843 1 0.05 0.2 0.85
922 1 0.05 0.15 0.9
941 1 0 0.2 0.9
945 1 0.1 0.2 0.9
832 1 0.2 0.15 0.85
847 1 0.15 0.2 0.85
926 1 0.15 0.15 0.9
949 1 0.2 0.2 0.9
836 1 0.3 0.15 0.85
851 1 0.25 0.2 0.85
930 1 0.25 0.15 0.9
953 1 0.3 0.2 0.9
840 1 0.4 0.15 0.85
855 1 0.35 0.2 0.85
934 1 0.35 0.15 0.9
957 1 0.4 0.2 0.9
859 1 0.45 0.2 0.85
938 1 0.45 0.15 0.9
844 1 0 0.25 0.85
848 1 0.1 0.25 0.85
863 1 0.05 0.3 0.85
942 1 0.05 0.25 0.9
961 1 0 0.3 0.9
965 1 0.1 0.3 0.9
852 1 0.2 0.25 0.85
867 1 0.15 0.3 0.85
946 1 0.15 0.25 0.9
969 1 0.2 0.3 0.9
856 1 0.3 0.25 0.85
871 1 0.25 0.3 0.85
950 1 0.25 0.25 0.9
973 1 0.3 0.3 0.9
860 1 0.4 0.25 0.85
875 1 0.35 0.3 0.85
954 1 0.35 0.25 0.9
977 1 0.4 0.3 0.9
879 1 0.45 0.3 0.85
958 1 0.45 0.25 0.9
864 1 0 0.35 0.85
868 1 0.1 0.35 0.85
883 1 0.05 0.4 0.85
962 1 0.05 0.35 0.9
981 1 0 0.4 0.9
985 1 0.1 0.4 0.9
872 1 0.2 0.35 0.85
887 1 0.15 0.4 0.85
966 1 0.15 0.35 0.9
989 1 0.2 0.4 0.9
876 1 0.3 0.35 0.85
891 1 0.25 0.4 0.85
970 1 0.25 0.35 0.9
993 1 0.3 0.4 0.9
880 1 0.4 0.35 0.85
895 1 0.35 0.4 0.85
974 1 0.35 0.35 0.9
997 1 0.4 0.4 0.9
899 1 0.45 0.4 0.85
978 1 0.45 0.35 0.9
884 1 0 0.45 0.85
888 1 0.1 0.45 0.85
982 1 0.05 0.45 0.9
892 1 0.2 0.45 0.85
986 1 0.15 0.45 0.9
896 1 0.3 0.45 0.85
990 1 0.25 0.45 0.9
900 1 0.4 0.45 0.85
994 1 0.35 0.45 0.9
998 1 0.45 0.45 0.9
903 1 0.05 0 0.95
904 1 0 0.05 0.95
908 1 0.1 0.05 0.95
923 1 0.05 0.1 0.95
907 1 0.15 0 0.95
912 1 0.2 0.05 0.95
927 1 0.15 0.1 0.95
911 1 0.25 0 0.95
916 1 0.3 0.05 0.95
931 1 0.25 0.1 0.95
915 1 0.35 0 0.95
920 1 0.4 0.05 0.95
935 1 0.35 0.1 0.95
919 1 0.45 0 0.95
939 1 0.45 0.1 0.95
924 1 0 0.15 0.95
928 1 0.1 0.15 0.95
943 1 0.05 0.2 0.95
932 1 0.2 0.15 0.95
947 1 0.15 0.2 0.95
936 1 0.3 0.15 0.95
951 1 0.25 0.2 0.95
940 1 0.4 0.15 0.95
955 1 0.35 0.2 0.95
959 1 0.45 0.2 0.95
944 1 0 0.25 0.95
948 1 0.1 0.25 0.95
963 1 0.05 0.3 0.95
952 1 0.2 0.25 0.95
967 1 0.15 0.3 0.95
956 1 0.3 0.25 0.95
971 1 0.25 0.3 0.95
960 1 0.4 0.25 0.95
975 1 0.35 0.3 0.95
979 1 0.45 0.3 0.95
964 1 0 0.35 0.95
968 1 0.1 0.35 0.95
983 1 0.05 0.4 0.95
972 1 0.2 0.35 0.95
987 1 0.15 0.4 0.95
976 1 0.3 0.35 0.95
991 1 0.25 0.4 0.95
980 1 0.4 0.35 0.95
995 1 0.35 0.4 0.95
999 1 0.45 0.4 0.95
984 1 0 0.45 0.95
988 1 0.1 0.45 0.95
992 1 0.2 0.45 0.95
996 1 0.3 0.45 0.95
1000 1 0.4 0.45 0.95
1001 1 0 0.5 0
1002 1 0.05 0.55 0
1003 1 0.05 0.5 0.05
1004 1 0 0.55 0.05
1005 1 0.1 0.5 0
1008 1 0.1 0.55 0.05
1021 1 0 0.6 0
1023 1 0.05 0.6 0.05
1025 1 0.1 0.6 0
1101 1 0 0.5 0.1
1102 1 0.05 0.55 0.1
1105 1 0.1 0.5 0.1
1121 1 0 0.6 0.1
1125 1 0.1 0.6 0.1
1006 1 0.15 0.55 0
1007 1 0.15 0.5 0.05
1009 1 0.2 0.5 0
1012 1 0.2 0.55 0.05
1027 1 0.15 0.6 0.05
1029 1 0.2 0.6 0
1106 1 0.15 0.55 0.1
1109 1 0.2 0.5 0.1
1129 1 0.2 0.6 0.1
1010 1 0.25 0.55 0
1011 1 0.25 0.5 0.05
1013 1 0.3 0.5 0
1016 1 0.3 0.55 0.05
1031 1 0.25 0.6 0.05
1033 1 0.3 0.6 0
1110 1 0.25 0.55 0.1
1113 1 0.3 0.5 0.1
1133 1 0.3 0.6 0.1
1014 1 0.35 0.55 0
1015 1 0.35 0.5 0.05
1017 1 0.4 0.5 0
1020 1 0.4 0.55 0.05
1035 1 0.35 0.6 0.05
1037 1 0.4 0.6 0
1114 1 0.35 0.55 0.1
1117 1 0.4 0.5 0.1
1137 1 0.4 0.6 0.1
1018 1 0.45 0.55 0
1019 1 0.45 0.5 0.05
1039 1 0.45 0.6 0.05
1118 1 0.45 0.55 0.1
1022 1 0.05 0.65 0
1024 1 0 0.65 0.05
1028 1 0.1 0.65 0.05
1041 1 0 0.7 0
1043 1 0.05 0.7 0.05
1045 1 0.1 0.7 0
1122 1 0.05 0.65 0.1
1141 1 0 0.7 0.1
1145 1 0.1 0.7 0.1
1026 1 0.15 0.65 0
1032 1 0.2 0.65 0.05
1047 1 0.15 0.7 0.05
1049 1 0.2 0.7 0
1126 1 0.15 0.65 0.1
1149 1 0.2 0.7 0.1
1030 1 0.25 0.65 0
1036 1 0.3 0.65 0.05
1051 1 0.25 0.7 0.05
1053 1 0.3 0.7 0
1130 1 0.25 0.65 0.1
1153 1 0.3 0.7 0.1
1034 1 0.35 0.65 0
1040 1 0.4 0.65 0.05
1055 1 0.35 0.7 0.05
1057 1 0.4 0.7 0
1134 1 0.35 0.65 0.1
1157 1 0.4 0.7 0.1
1038 1 0.45 0.65 0
1059 1 0.45 0.7 0.05
1138 1 0.45 0.65 0.1
1042 1 0.05 0.75 0
1044 1 0 0.75 0.05
1048 1 0.1 0.75 0.05
1061 1 0 0.8 0
1063 1 0.05 0.8 0.05
1065 1 0.1 0.8 0
1142 1 0.05 0.75 0.1
1161 1 0 0.8 0.1
1165 1 0.1 0.8 0.1
1046 1 0.15 0.75 0
1052 1 0.2 0.75 0.05
1067 1 0.15 0.8 0.05
1069 1 0.2 0.8 0
1146 1 0.15 0.75 0.1
1169 1 0.2 0.8 0.1
1050 1 0.25 0.75 0
1056 1 0.3 0.75 0.05
1071 1 0.25 0.8 0.05
1073 1 0.3 0.8 0
1150 1 0.25 0.75 0.1
1173 1 0.3 0.8 0.1
1054 1 0.35 0.75 0
1060 1 0.4 0.75 0.05
1075 1 0.35 0.8 0.05
1077 1 0.4 0.8 0
1154 1 0.35 0.75 0.1
1177 1 0.4 0.8 0.1
1058 1 0.45 0.75 0
1079 1 0.45 0.8 0.05
1158 1 0.45 0.75 0.1
1062 1 0.05 0.85 0
1064 1 0 0.85 0.05
1068 1 0.1 0.85 0.05
1081 1 0 0.9 0
1083 1 0.05 0.9 0.05
1085 1 0.1 0.9 0
1162 1 0.05 0.85 0.1
1181 1 0 0.9 0.1
1185 1 0.1 0.9 0.1
1066 1 0.15 0.85 0
1072 1 0.2 0.85 0.05
1087 1 0.15 0.9 0.05
1089 1 0.2 0.9 0
1166 1 0.15 0.85 0.1
1189 1 0.2 0.9 0.1
1070 1 0.25 0.85 0
1076 1 0.3 0.85 0.05
1091 1 0.25 0.9 0.05
1093 1 0.3 0.9 0
1170 1 0.25 0.85 0.1
1193 1 0.3 0.9 0.1
1074 1 0.35 0.85 0
1080 1 0.4 0.85 0.05
1095 1 0.35 0.9 0.05
1097 1 0.4 0.9 0
1174 1 0.35 0.85 0.1
1197 1 0.4 0.9 0.1
1078 1 0.45 0.85 0
1099 1 0.45 0.9 0.05
1178 1 0.45 0.85 0.1
1082 1 0.05 0.95 0
1084 1 0 0.95 0.05
1088 1 0.1 0.95 0.05
1182 1 0.05 0.95 0.1
1086 1 0.15 0.95 0
1092 1 0.2 0.95 0.05
1186 1 0.15 0.95 0.1
1090 1 0.25 0.95 0
1096 1 0.3 0.95 0.05
1190 1 0.25 0.95 0.1
1094 1 0.35 0.95 0
1100 1 0.4 0.95 0.05
1194 1 0.35 0.95 0.1
1098 1 0.45 0.95 0
1198 1 0.45 0.95 0.1
1103 1 0.05 0.5 0.15
1104 1 0 0.55 0.15
1108 1 0.1 0.55 0.15
1123 1 0.05 0.6 0.15
1201 1 0 0.5 0.2
1202 1 0.05 0.55 0.2
1205 1 0.1 0.5 0.2
1221 1 0 0.6 0.2
1225 1 0.1 0.6 0.2
1107 1 0.15 0.5 0.15
1112 1 0.2 0.55 0.15
1127 1 0.15 0.6 0.15
1206 1 0.15 0.55 0.2
1209 1 0.2 0.5 0.2
1229 1 0.2 0.6 0.2
1111 1 0.25 0.5 0.15
1116 1 0.3 0.55 0.15
1131 1 0.25 0.6 0.15
1210 1 0.25 0.55 0.2
1213 1 0.3 0.5 0.2
1233 1 0.3 0.6 0.2
1115 1 0.35 0.5 0.15
1120 1 0.4 0.55 0.15
1135 1 0.35 0.6 0.15
1214 1 0.35 0.55 0.2
1217 1 0.4 0.5 0.2
1237 1 0.4 0.6 0.2
1119 1 0.45 0.5 0.15
1139 1 0.45 0.6 0.15
1218 1 0.45 0.55 0.2
1124 1 0 0.65 0.15
1128 1 0.1 0.65 0.15
1143 1 0.05 0.7 0.15
1222 1 0.05 0.65 0.2
1241 1 0 0.7 0.2
1245 1 0.1 0.7 0.2
1132 1 0.2 0.65 0.15
1147 1 0.15 0.7 0.15
1226 1 0.15 0.65 0.2
1249 1 0.2 0.7 0.2
1136 1 0.3 0.65 0.15
1151 1 0.25 0.7 0.15
1230 1 0.25 0.65 0.2
1253 1 0.3 0.7 0.2
1140 1 0.4 0.65 0.15
1155 1 0.35 0.7 0.15
1234 1 0.35 0.65 0.2
1257 1 0.4 0.7 0.2
1159 1 0.45 0.7 0.15
1238 1 0.45 0.65 0.2
1144 1 0 0.75 0.15
1148 1 0.1 0.75 0.15
1163 1 0.05 0.8 0.15
1242 1 0.05 0.75 0.2
1261 1 0 0.8 0.2
1265 1 0.1 0.8 0.2
1152 1 0.2 0.75 0.15
1167 1 0.15 0.8 0.15
1246 1 0.15 0.75 0.2
1269 1 0.2 0.8 0.2
1156 1 0.3 0.75 0.15
1171 1 0.25 0.8 0.15
1250 1 0.25 0.75 0.2
1273 1 0.3 0.8 0.2
1160 1 0.4 0.75 0.15
1175 1 0.35 0.8 0.15
1254 1 0.35 0.75 0.2
1277 1 0.4 0.8 0.2
1179 1 0.45 0.8 0.15
1258 1 0.45 0.75 0.2
1164 1 0 0.85 0.15
1168 1 0.1 0.85 0.15
1183 1 0.05 0.9 0.15
1262 1 0.05 0.85 0.2
1281 1 0 0.9 0.2
1285 1 0.1 0.9 0.2
1172 1 0.2 0.85 0.15
1187 1 0.15 0.9 0.15
1266 1 0.15 0.85 0.2
1289 1 0.2 0.9 0.2
1176 1 0.3 0.85 0.15
1191 1 0.25 0.9 0.15
1270 1 0.25 0.85 0.2
1293 1 0.3 0.9 0.2
1180 1 0.4 0.85 0.15
1195 1 0.35 0.9 0.15
1274 1 0.35 0.85 0.2
1297 1 0.4 0.9 0.2
1199 1 0.45 0.9 0.15
1278 1 0.45 0.85 0.2
1184 1 0 0.95 0.15
1188 1 0.1 0.95 0.15
1282 1 0.05 0.95 0.2
1192 1 0.2 0.95 0.15
1286 1 0.15 0.95 0.2
1196 1 0.3 0.95 0.15
1290 1 0.25 0.95 0.2
1200 1 0.4 0.95 0.15
1294 1 0.35 0.95 0.2
1298 1 0.45 0.95 0.2
1203 1 0.05 0.5 0.25
1204 1 0 0.55 0.25
1208 1 0.1 0.55 0.25
1223 1 0.05 0.6 0.25
1301 1 0 0.5 0.3
1302 1 0.05 0.55 0.3
1305 1 0.1 0.5 0.3
1321 1 0 0.6 0.3
1325 1 0.1 0.6 0.3
1207 1 0.15 0.5 0.25
1212 1 0.2 0.55 0.25
1227 1 0.15 0.6 0.25
1306 1 0.15 0.55 0.3
1309 1 0.2 0.5 0.3
1329 1 0.2 0.6 0.3
1211 1 0.25 0.5 0.25
1216 1 0.3 0.55 0.25
1231 1 0.25 0.6 0.25
1310 1 0.25 0.55 0.3
1313 1 0.3 0.5 0.3
1333 1 0.3 0.6 0.3
1215 1 0.35 0.5 0.25
1220 1 0.4 0.55 0.25
1235 1 0.35 0.6 0.25
1314 1 0.35 0.55 0.3
1317 1 0.4 0.5 0.3
1337 1 0.4 0.6 0.3
1219 1 0.45 0.5 0.25
1239 1 0.45 0.6 0.25
1318 1 0.45 0.55 0.3
1224 1 0 0.65 0.25
1228 1 0.1 0.65 0.25
1243 1 0.05 0.7 0.25
1322 1 0.05 0.65 0.3
1341 1 0 0.7 0.3
1345 1 0.1 0.7 0.3
1232 1 0.2 0.65 0.25
1247 1 0.15 0.7 0.25
1326 1 0.15 0.65 0.3
1349 1 0.2 0.7 0.3
1236 1 0.3 0.65 0.25
1251 1 0.25 0.7 0.25
1330 1 0.25 0.65 0.3
1353 1 0.3 0.7 0.3
1240 1 0.4 0.65 0.25
1255 1 0.35 0.7 0.25
1334 1 0.35 0.65 0.3
1357 1 0.4 0.7 0.3
1259 1 0.45 0.7 0.25
1338 1 0.45 0.65 0.3
1244 1 0 0.75 0.25
1248 1 0.1 0.75 0.25
1263 1 0.05 0.8 0.25
1342 1 0.05 0.75 0.3
1361 1 0 0.8 0.3
1365 1 0.1 0.8 0.3
1252 1 0.2 0.75 0.25
1267 1 0.15 0.8 0.25
1346 1 0.15 0.75 0.3
1369 1 0.2 0.8 0.3
1256 1 0.3 0.75 0.25
1271 1 0.25 0.8 0.25
1350 1 0.25 0.75 0.3
1373 1 0.3 0.8 0.3
1260 1 0.4 0.75 0.25
1275 1 0.35 0.8 0.25
1354 1 0.35 0.75 0.3
1377 1 0.4 0.8 0.3
1279 1 0.45 0.8 0.25
1358 1 0.45 0.75 0.3
1264 1 0 0.85 0.25
1268 1 0.1 0.85 0.25
1283 1 0.05 0.9 0.25
1362 1 0.05 0.85 0.3
1381 1 0 0.9 0.3
1385 1 0.1 0.9 0.3
1272 1 0.2 0.85 0.25
1287 1 0.15 0.9 0.25
1366 1 0.15 0.85 0.3
1389 1 0.2 0.9 0.3
1276 1 0.3 0.85 0.25
1291 1 0.25 0.9 0.25
1370 1 0.25 0.85 0.3
1393 1 0.3 0.9 0.3
1280 1 0.4 0.85 0.25
1295 1 0.35 0.9 0.25
1374 1 0.35 0.85 0.3
1397 1 0.4 0.9 0.3
1299 1 0.45 0.9 0.25
1378 1 0.45 0.85 0.3
1284 1 0 0.95 0.25
1288 1 0.1 0.95 0.25
1382 1 0.05 0.95 0.3
1292 1 0.2 0.95 0.25
1386 1 0.15 0.95 0.3
1296 1 0.3 0.95 0.25
1390 1 0.25 0.95 0.3
1300 1 0.4 0.95 0.25
1394 1 0.35 0.95 0.3
1398 1 0.45 0.95 0.3
1303 1 0.05 0.5 0.35
1304 1 0 0.55 0.35
1308 1 0.1 0.55 0.35
1323 1 0.05 0.6 0.35
1401 1 0 0.5 0.4
1402 1 0.05 0.55 0.4
1405 1 0.1 0.5 0.4
1421 1 0 0.6 0.4
1425 1 0.1 0.6 0.4
1307 1 0.15 0.5 0.35
1312 1 0.2 0.55 0.35
1327 1 0.15 0.6 0.35
1406 1 0.15 0.55 0.4
1409 1 0.2 0.5 0.4
1429 1 0.2 0.6 0.4
1311 1 0.25 0.5 0.35
1316 1 0.3 0.55 0.35
1331 1 0.25 0.6 0.35
1410 1 0.25 0.55 0.4
1413 1 0.3 0.5 0.4
1433 1 0.3 0.6 0.4
1315 1 0.35 0.5 0.35
1320 1 0.4 0.55 0.35
1335 1 0.35 0.6 0.35
1414 1 0.35 0.55 0.4
1417 1 0.4 0.5 0.4
1437 1 0.4 0.6 0.4
1319 1 0.45 0.5 0.35
1339 1 0.45 0.6 0.35
1418 1 0.45 0.55 0.4
1324 1 0 0.65 0.35
1328 1 0.1 0.65 0.35
1343 1 0.05 0.7 0.35
1422 1 0.05 0.65 0.4
1441 1 0 0.7 0.4
1445 1 0.1 0.7 0.4
1332 1 0.2 0.65 0.35
1347 1 0.15 0.7 0.35
1426 1 0.15 0.65 0.4
1449 1 0.2 0.7 0.4
1336 1 0.3 0.65 0.35
1351 1 0.25 0.7 0.35
1430 1 0.25 0.65 0.4
1453 1 0.3 0.7 0.4
1340 1 0.4 0.65 0.35
1355 1 0.35 0.7 0.35
1434 1 0.35 0.65 0.4
1457 1 0.4 0.7 0.4
1359 1 0.45 0.7 0.35
1438 1 0.45 0.65 0.4
1344 1 0 0.75 0.35
1348 1 0.1 0.75 0.35
1363 1 0.05 0.8 0.35
1442 1 0.05 0.75 0.4
1461 1 0 0.8 0.4
1465 1 0.1 0.8 0.4
1352 1 0.2 0.75 0.35
1367 1 0.15 0.8 0.35
1446 1 0.15 0.75 0.4
1469 1 0.2 0.8 0.4
1356 1 0.3 0.75 0.35
1371 1 0.25 0.8 0.35
1450 1 0.25 0.75 0.4
1473 1 0.3 0.8 0.4
1360 1 0.4 0.75 0.35
1375 1 0.35 0.8 0.35
1454 1 0.35 0.75 0.4
1477 1 0.4 0.8 0.4
1379 1 0.45 0.8 0.35
1458 1 0.45 0.75 0.4
1364 1 0 0.85 0.35
1368 1 0.1 0.85 0.35
1383 1 0.05 0.9 0.35
1462 1 0.05 0.85 0.4
1481 1 0 0.9 0.4
1485 1 0.1 0.9 0.4
1372 1 0.2 0.85 0.35
1387 1 0.15 0.9 0.35
1466 1 0.15 0.85 0.4
1489 1 0.2 0.9 0.4
1376 1 0.3 0.85 0.35
1391 1 0.25 0.9 0.35
1470 1 0.25 0.85 0.4
1493 1 0.3 0.9 0.4
1380 1 0.4 0.85 0.35
1395 1 0.35 0.9 0.35
1474 1 0.35 0.85 0.4
1497 1 0.4 0.9 0.4
1399 1 0.45 0.9 0.35
1478 1 0.45 0.85 0.4
1384 1 0 0.95 0.35
1388 1 0.1 0.95 0.35
1482 1 0.05 0.95 0.4
1392 1 0.2 0.95 0.35
1486 1 0.15 0.95 0.4
1396 1 0.3 0.95 0.35
1490 1 0.25 0.95 0.4
1400 1 0.4 0.95 0.35
1494 1 0.35 0.95 0.4
1498 1 0.45 0.95 0.4
1403 1 0.05 0.5 0.45
1404 1 0 0.55 0.45
1408 1 0.1 0.55 0.45
1423 1 0.05 0.6 0.45
1407 1 0.15 0.5 0.45
1412 1 0.2 0.55 0.45
1427 1 0.15 0.6 0.45
1411 1 0.25 0.5 0.45
1416 1 0.3 0.55 0.45
1431 1 0.25 0.6 0.45
1415 1 0.35 0.5 0.45
1420 1 0.4 0.55 0.45
1435 1 0.35 0.6 0.45
1419 1 0.45 0.5 0.45
1439 1 0.45 0.6 0.45
1424 1 0 0.65 0.45
1428 1 0.1 0.65 0.45
1443 1 0.05 0.7 0.45
1432 1 0.2 0.65 0.45
1447 1 0.15 0.7 0.45
1436 1 0.3 0.65 0.45
1451 1 0.25 0.7 0.45
1440 1 0.4 0.65 0.45
1455 1 0.35 0.7 0.45
1459 1 0.45 0.7 0.45
1444 1 0 0.75 0.45
1448 1 0.1 0.75 0.45
1463 1 0.05 0.8 0.45
1452 1 0.2 0.75 0.45
1467 1 0.15 0.8 0.45
1456 1 0.3 0.75 0.45
1471 1 0.25 0.8 0.45
1460 1 0.4 0.75 0.45
1475 1 0.35 0.8 0.45
1479 1 0.45 0.8 0.45
1464 1 0 0.85 0.45
1468 1 0.1 0.85 0.45
1483 1 0.05 0.9 0.45
1472 1 0.2 0.85 0.45
1487 1 0.15 0.9 0.45
1476 1 0.3 0.85 0.45
1491 1 0.25 0.9 0.45
1480 1 0.4 0.85 0.45
1495 1 0.35 0.9 0.45
1499 1 0.45 0.9 0.45
1484 1 0 0.95 0.45
1488 1 0.1 0.95 0.45
1492 1 0.2 0.95 0.45
1496 1 0.3 0.95 0.45
1500 1 0.4 0.95 0.45
1501 1 0 0.5 0.5
1502 1 0.05 0.55 0.5
1503 1 0.05 0.5 0.55
1504 1 0 0.55 0.55
1505 1 0.1 0.5 0.5
1508 1 0.1 0.55 0.55
1521 1 0 0.6 0.5
1523 1 0.05 0.6 0.55
1525 1 0.1 0.6 0.5
1601 1 0 0.5 0.6
1602 1 0.05 0.55 0.6
1605 1 0.1 0.5 0.6
1621 1 0 0.6 0.6
1625 1 0.1 0.6 0.6
1506 1 0.15 0.55 0.5
1507 1 0.15 0.5 0.55
1509 1 0.2 0.5 0.5
1512 1 0.2 0.55 0.55
1527 1 0.15 0.6 0.55
1529 1 0.2 0.6 0.5
1606 1 0.15 0.55 0.6
1609 1 0.2 0.5 0.6
1629 1 0.2 0.6 0.6
1510 1 0.25 0.55 0.5
1511 1 0.25 0.5 0.55
1513 1 0.3 0.5 0.5
1516 1 0.3 0.55 0.55
1531 1 0.25 0.6 0.55
1533 1 0.3 0.6 0.5
1610 1 0.25 0.55 0.6
1613 1 0.3 0.5 0.6
1633 1 0.3 0.6 0.6
1514 1 0.35 0.55 0.5
1515 1 0.35 0.5 0.55
1517 1 0.4 0.5 0.5
1520 1 0.4 0.55 0.55
1535 1 0.35 0.6 0.55
1537 1 0.4 0.6 0.5
1614 1 0.35 0.55 0.6
1617 1 0.4 0.5 0.6
1637 1 0.4 0.6 0.6