ITEM: TIMESTEP
0
ITEM: NUMBER OF ATOMS
1600
ITEM: BOX BOUNDS ss ss pp
-3.7105519643229368e-01 5.6677383176433253e+01
-3.5200000000000006e-03 3.4849742176873065e+01
0.0000000000000000e+00 9.9560630400000001e+00
ITEM: ATOMS id type xs ys zs
1 2 0.0373552 0.000100995 0.25
5 2 0.00650421 0.0358081 0.125
6 2 0.0373552 0.000100995 0
8 2 0.0373552 0.0715151 0
39 2 0.0373552 0.0715151 0.25
2 2 0.0990571 0.000100995 0.25
7 2 0.0682062 0.0358081 0.125
9 2 0.0990571 0.000100995 0
11 2 0.0990571 0.0715151 0
43 2 0.0990571 0.0715151 0.25
10 2 0.129908 0.0358081 0.125
3 2 0.160759 0.000100995 0.25
12 2 0.160759 0.000100995 0
13 2 0.19161 0.0358081 0.125
14 2 0.160759 0.0715151 0
47 2 0.160759 0.0715151 0.25
4 2 0.222461 0.000100995 0.25
15 2 0.222461 0.000100995 0
16 2 0.222461 0.0715151 0
51 2 0.222461 0.0715151 0.25
37 2 0.00650421 0.107222 0.125
42 1 0.0369122 0.140424 0.251939
54 1 0.0367003 0.141332 0.00674083
40 2 0.0682062 0.107222 0.125
46 1 0.100483 0.143308 0.248824
44 2 0.129908 0.107222 0.125
48 2 0.19161 0.107222 0.125
50 1 0.160246 0.141788 0.257563
52 1 0.222366 0.143126 0.256261
63 1 0.223047 0.144154 0.000266218
53 1 0.00333044 0.174599 0.140743
56 1 0.0356381 0.209757 0.00257336
103 1 0.0366923 0.208857 0.253896
101 1 0.00739276 0.246443 0.12429
55 1 0.0688563 0.17579 0.127381
59 1 0.097091 0.210881 0.00145298
107 1 0.0995106 0.211507 0.256375
104 1 0.0648264 0.24556 0.11198
58 1 0.130479 0.175772 0.13264
108 1 0.129343 0.246493 0.116734
61 1 0.192599 0.179206 0.124702
62 1 0.161535 0.213445 0.00505235
111 1 0.162364 0.210423 0.256755
115 1 0.22355 0.217832 0.25428
106 1 0.03861 0.28422 0.241479
117 1 0.0045698 0.316396 0.123452
110 1 0.0964939 0.28033 0.221345
119 1 0.0669055 0.322623 0.113948
122 1 0.126253 0.315047 0.115719
112 1 0.192429 0.250492 0.118133
114 1 0.160366 0.280574 0.242033
125 1 0.190496 0.319094 0.115422
116 1 0.221817 0.288919 0.228308
120 1 0.0360295 0.359554 0.00227148
165 1 0.00622792 0.397841 0.119635
167 1 0.036687 0.354742 0.241794
168 1 0.0654404 0.393241 0.121856
171 1 0.0989546 0.357236 0.232905
172 1 0.129997 0.389566 0.122428
175 1 0.15904 0.351613 0.246881
176 1 0.188988 0.388157 0.122517
179 1 0.222539 0.358087 0.241778
170 1 0.0386905 0.427661 0.248816
181 1 0.00741906 0.467572 0.12243
174 1 0.0983269 0.430558 0.249651
183 1 0.0659404 0.471188 0.127937
185 1 0.0974042 0.42898 0.0132162
186 1 0.129553 0.46133 0.124017
231 1 0.159521 0.496258 0.243974
178 1 0.160506 0.422159 0.262699
189 1 0.190379 0.459235 0.118978
180 1 0.221647 0.427512 0.243732
191 1 0.22167 0.429691 0.00369302
232 1 0.22025 0.497108 0.243058
21 2 0.00650421 0.0358081 0.375
22 2 0.00650421 0.0358081 0.625
23 2 0.0373552 0.000100995 0.5
26 2 0.0373552 0.0715151 0.5
24 2 0.0682062 0.0358081 0.375
25 2 0.0682062 0.0358081 0.625
27 2 0.0990571 0.000100995 0.5
30 2 0.0990571 0.0715151 0.5
28 2 0.129908 0.0358081 0.375
29 2 0.129908 0.0358081 0.625
31 2 0.160759 0.000100995 0.5
32 2 0.19161 0.0358081 0.375
33 2 0.19161 0.0358081 0.625
34 2 0.160759 0.0715151 0.5
35 2 0.222461 0.000100995 0.5
36 2 0.222461 0.0715151 0.5
38 2 0.00650421 0.107222 0.375
69 2 0.00650421 0.107222 0.625
87 1 0.0371818 0.140092 0.505381
41 2 0.0682062 0.107222 0.375
72 2 0.0682062 0.107222 0.625
91 1 0.0983294 0.140828 0.4976
45 2 0.129908 0.107222 0.375
76 2 0.129908 0.107222 0.625
49 2 0.19161 0.107222 0.375
80 2 0.19161 0.107222 0.625
95 1 0.162416 0.1448 0.506744
99 1 0.222303 0.142161 0.505702
85 1 0.00354233 0.180547 0.388717
86 1 0.00804863 0.175873 0.647274
90 1 0.0368282 0.210847 0.490868
102 1 0.00968889 0.247858 0.365556
88 1 0.0673458 0.174063 0.380475
89 1 0.067631 0.174409 0.625679
94 1 0.099305 0.207426 0.500586
105 1 0.0673044 0.246042 0.354276
136 1 0.0670319 0.243474 0.609428
92 1 0.130989 0.174865 0.382966
93 1 0.131585 0.178123 0.629935
109 1 0.130688 0.243721 0.377071
140 1 0.12943 0.245371 0.626291
96 1 0.194682 0.178914 0.37913
97 1 0.195009 0.180244 0.63656
98 1 0.161767 0.215384 0.517335
100 1 0.224749 0.214065 0.502289
133 1 0.00843144 0.250497 0.618896
149 1 0.00504637 0.319076 0.376262
150 1 0.00976887 0.319063 0.614515
151 1 0.038288 0.284256 0.485784
152 1 0.0698177 0.318267 0.352868
153 1 0.0685521 0.316041 0.610613
155 1 0.0974521 0.276243 0.473795
156 1 0.128584 0.316318 0.358912
157 1 0.127511 0.31415 0.618444
113 1 0.1913 0.252081 0.373074
144 1 0.194522 0.250636 0.616191
159 1 0.160416 0.285315 0.494206
160 1 0.191011 0.322415 0.371378
161 1 0.194564 0.320619 0.620667
163 1 0.223301 0.288826 0.484365
154 1 0.0401344 0.35298 0.484993
166 1 0.0083105 0.387294 0.380585
197 1 0.00797629 0.389355 0.620798
158 1 0.0985207 0.353382 0.484283
169 1 0.0688032 0.390799 0.359488
200 1 0.0695095 0.38726 0.614045
173 1 0.128212 0.392385 0.374724
204 1 0.127971 0.391707 0.621008
162 1 0.159302 0.35677 0.497405
177 1 0.191218 0.39419 0.383853
208 1 0.190356 0.390743 0.629986
164 1 0.223431 0.361245 0.500687
213 1 0.00873434 0.459623 0.359038
214 1 0.00122686 0.460689 0.616194
215 1 0.0398022 0.423874 0.503292
218 1 0.0345468 0.497937 0.506143
216 1 0.0672461 0.464864 0.387266
217 1 0.0681067 0.464052 0.630612
219 1 0.0986153 0.427648 0.50083
222 1 0.0989467 0.498078 0.483178
220 1 0.131153 0.46369 0.373992
221 1 0.128499 0.463168 0.613087
223 1 0.159648 0.429521 0.509822
224 1 0.190747 0.462958 0.38421
225 1 0.188881 0.466525 0.631065
227 1 0.221531 0.434578 0.508803
17 2 0.0373552 0.000100995 0.75
65 2 0.00650421 0.0358081 0.875
71 2 0.0373552 0.0715151 0.75
18 2 0.0990571 0.000100995 0.75
66 2 0.0682062 0.0358081 0.875
75 2 0.0990571 0.0715151 0.75
67 2 0.129908 0.0358081 0.875
19 2 0.160759 0.000100995 0.75
68 2 0.19161 0.0358081 0.875
79 2 0.160759 0.0715151 0.75
20 2 0.222461 0.000100995 0.75
83 2 0.222461 0.0715151 0.75
70 2 0.00650421 0.107222 0.875
74 1 0.0376483 0.140777 0.762368
73 2 0.0682062 0.107222 0.875
78 1 0.0995157 0.143021 0.747852
57 1 0.101129 0.142571 0.991811
77 2 0.129908 0.107222 0.875
60 1 0.16076 0.145194 0.990704
81 2 0.19161 0.107222 0.875
82 1 0.162353 0.144346 0.752958
84 1 0.221149 0.139774 0.758414
129 1 0.00538934 0.17544 0.891929
135 1 0.0358811 0.214847 0.751413
130 1 0.0667444 0.176983 0.87779
139 1 0.0980048 0.21054 0.747584
137 1 0.066167 0.247757 0.864727
131 1 0.131222 0.179571 0.882584
141 1 0.125567 0.247073 0.876651
132 1 0.192191 0.179862 0.882948
143 1 0.162826 0.215283 0.760808
64 1 0.223036 0.217992 0.998067
147 1 0.225408 0.215982 0.751362
118 1 0.034848 0.283939 0.988712
134 1 0.00368776 0.254522 0.860296
138 1 0.0383946 0.285707 0.742123
193 1 0.00558912 0.326698 0.866026
121 1 0.093183 0.284635 0.984647
142 1 0.0969389 0.280522 0.733926
194 1 0.0656522 0.32211 0.86327
195 1 0.124921 0.316195 0.862989
124 1 0.158571 0.282875 0.986876
145 1 0.194121 0.252326 0.866629
146 1 0.161098 0.284181 0.741551
196 1 0.191504 0.320555 0.862379
127 1 0.223716 0.291327 0.983949
148 1 0.226527 0.286737 0.740654
198 1 0.00756853 0.397091 0.873271
199 1 0.0374897 0.359123 0.745646
123 1 0.0966875 0.354856 0.994057
201 1 0.0667874 0.396032 0.874785
203 1 0.095875 0.355113 0.740447
205 1 0.127504 0.387089 0.868918
126 1 0.158068 0.351088 0.996426
207 1 0.156872 0.352771 0.739567
209 1 0.190505 0.388066 0.871651
128 1 0.224399 0.361027 0.994688
211 1 0.225233 0.355317 0.743367
182 1 0.0364867 0.43349 0.997947
233 1 0.00154586 0.467997 0.861619
202 1 0.0356053 0.431433 0.744157
238 1 0.0996389 0.498449 0.743487
234 1 0.0677914 0.46603 0.873471
206 1 0.0983786 0.42619 0.750407
235 1 0.127991 0.462964 0.87212
188 1 0.158392 0.422643 0.995936
239 1 0.158862 0.49881 0.748208
210 1 0.159544 0.424381 0.747024
236 1 0.191231 0.459226 0.867371
190 1 0.16002 0.495204 0.994358
212 1 0.221693 0.424847 0.750462
241 1 0.00306245 0.539204 0.138784
245 1 0.0376459 0.572151 0.258949
254 1 0.0333543 0.571649 0.00291616
229 1 0.0356724 0.503091 0.251765
243 1 0.0656658 0.537579 0.109801
230 1 0.0992242 0.501828 0.243161
248 1 0.101269 0.571031 0.232173
246 1 0.130082 0.532226 0.103459
249 1 0.188967 0.534628 0.117253
251 1 0.159304 0.574321 0.229834
252 1 0.219346 0.570363 0.240877
263 1 0.22069 0.572913 0.000322789
253 1 0.0020303 0.607788 0.123462
256 1 0.0347554 0.639814 0.00281372
295 1 0.0361945 0.640337 0.243757
255 1 0.0687613 0.607229 0.125591
299 1 0.100092 0.642829 0.257158
258 1 0.129684 0.607275 0.11132
261 1 0.1896 0.609663 0.115386
303 1 0.158402 0.646013 0.238908
264 1 0.224111 0.643425 0.0165993
307 1 0.221099 0.642365 0.257654
293 1 0.00369191 0.674881 0.122601
298 1 0.0369515 0.711005 0.246378
309 1 0.00791694 0.748262 0.115221
296 1 0.0669246 0.676877 0.120871
302 1 0.0964226 0.714763 0.238108
300 1 0.127728 0.681815 0.115413
314 1 0.126365 0.749817 0.118054
304 1 0.189794 0.677822 0.127281
306 1 0.157519 0.717861 0.256171
316 1 0.161164 0.714532 0.00168549
308 1 0.219112 0.714664 0.254482
319 1 0.220594 0.713132 0.00963145
312 1 0.0364787 0.789733 0.000615514
357 1 0.00333918 0.821659 0.118356
359 1 0.0375816 0.788031 0.243469
311 1 0.066344 0.750538 0.105648
360 1 0.0675457 0.824714 0.12511
363 1 0.0960942 0.784612 0.240326
364 1 0.127557 0.820561 0.122951
317 1 0.189424 0.754146 0.134026
318 1 0.158922 0.786091 0.00288604
367 1 0.158809 0.787709 0.248843
368 1 0.190602 0.823833 0.134914
320 1 0.22125 0.786806 0.0156984
371 1 0.219114 0.787232 0.267195
362 1 0.0369546 0.860362 0.241761
373 3 0.00650421 0.892778 0.125
374 1 0.0361529 0.856607 0.00205599
366 1 0.0985879 0.857085 0.256424
375 3 0.0682062 0.892778 0.125
377 1 0.0984994 0.858238 0.00669655
378 3 0.129908 0.892778 0.125
370 1 0.15962 0.856812 0.253037
380 1 0.16018 0.856898 0.00518357
381 3 0.19161 0.892778 0.125
372 1 0.223461 0.855247 0.26383
383 1 0.222676 0.858277 0.0120136
376 3 0.0373552 0.928485 0
421 3 0.00650421 0.964192 0.125
423 3 0.0373552 0.928485 0.25
426 3 0.0373552 0.999899 0.25
437 3 0.0373552 0.999899 0
379 3 0.0990571 0.928485 0
424 3 0.0682062 0.964192 0.125
427 3 0.0990571 0.928485 0.25
430 3 0.0990571 0.999899 0.25
438 3 0.0990571 0.999899 0
428 3 0.129908 0.964192 0.125
382 3 0.160759 0.928485 0
431 3 0.160759 0.928485 0.25
432 3 0.19161 0.964192 0.125
434 3 0.160759 0.999899 0.25
439 3 0.160759 0.999899 0
384 3 0.222461 0.928485 0
435 3 0.222461 0.928485 0.25
436 3 0.222461 0.999899 0.25
440 3 0.222461 0.999899 0
242 1 0.00327923 0.530374 0.388809
265 1 0.00690539 0.538457 0.616498
279 1 0.0372208 0.573607 0.500094
244 1 0.0690245 0.537633 0.367804
267 1 0.0686027 0.534828 0.619825
283 1 0.100176 0.571676 0.485561
247 1 0.130553 0.535237 0.361298
270 1 0.131859 0.537521 0.611376
250 1 0.188947 0.534069 0.374508
273 1 0.190349 0.538472 0.621242
287 1 0.160927 0.575842 0.499269
226 1 0.158895 0.501994 0.499487
228 1 0.222169 0.505008 0.499659
291 1 0.22115 0.575715 0.502416
277 1 0.0056689 0.603435 0.382371
278 1 0.00178874 0.612404 0.619128
282 1 0.0370515 0.645493 0.499633
280 1 0.0690444 0.608121 0.373826
281 1 0.0693269 0.607864 0.621744
286 1 0.0993785 0.646659 0.498279
284 1 0.131456 0.608348 0.381672
285 1 0.128548 0.608343 0.621164
288 1 0.19025 0.609466 0.366468
289 1 0.194125 0.612283 0.624405
290 1 0.160301 0.645314 0.509449
292 1 0.223572 0.647035 0.503607
294 1 0.00599643 0.675074 0.369819
325 1 0.00470707 0.683204 0.626487
341 1 0.0084129 0.74959 0.375475
343 1 0.0378206 0.713241 0.482896
297 1 0.0684327 0.678241 0.377132
328 1 0.0667869 0.677453 0.621552
347 1 0.0962775 0.716854 0.49478
301 1 0.129239 0.682477 0.37952
332 1 0.128935 0.681259 0.634913
305 1 0.191265 0.680661 0.382534
336 1 0.19543 0.681378 0.625954
351 1 0.161544 0.713214 0.512762
355 1 0.221854 0.716034 0.500422
342 1 0.00498331 0.755347 0.6344
346 1 0.0356088 0.789206 0.493975
358 1 0.00458775 0.822722 0.377726
389 1 0.00636275 0.824023 0.624674
344 1 0.0665335 0.750484 0.364305
345 1 0.0642632 0.751932 0.615333
350 1 0.0970645 0.786669 0.483387
361 1 0.0666785 0.823122 0.379174
392 1 0.0667547 0.825065 0.624359
348 1 0.12785 0.753657 0.370543
349 1 0.129031 0.750585 0.626262
365 1 0.126958 0.823359 0.373028
396 1 0.128359 0.819684 0.626107
352 1 0.188665 0.750612 0.378756
353 1 0.191962 0.754454 0.627797
354 1 0.159397 0.786008 0.501871
369 1 0.189128 0.821298 0.386742
400 1 0.189154 0.824669 0.635732
356 1 0.221369 0.786117 0.507043
405 3 0.00650421 0.892778 0.375
406 3 0.00650421 0.892778 0.625
407 1 0.0359323 0.857454 0.502776
408 3 0.0682062 0.892778 0.375
409 3 0.0682062 0.892778 0.625
411 1 0.0985291 0.857429 0.502268
412 3 0.129908 0.892778 0.375
413 3 0.129908 0.892778 0.625
415 1 0.158183 0.857594 0.502249
416 3 0.19161 0.892778 0.375
417 3 0.19161 0.892778 0.625
419 1 0.223009 0.856762 0.501151
410 3 0.0373552 0.928485 0.5
422 3 0.00650421 0.964192 0.375
445 3 0.00650421 0.964192 0.625
461 3 0.0373552 0.999899 0.5
414 3 0.0990571 0.928485 0.5
425 3 0.0682062 0.964192 0.375
448 3 0.0682062 0.964192 0.625
462 3 0.0990571 0.999899 0.5
429 3 0.129908 0.964192 0.375
452 3 0.129908 0.964192 0.625
418 3 0.160759 0.928485 0.5
433 3 0.19161 0.964192 0.375
456 3 0.19161 0.964192 0.625
463 3 0.160759 0.999899 0.5
420 3 0.222461 0.928485 0.5
464 3 0.222461 0.999899 0.5
184 1 0.0343486 0.50313 0.984407
266 1 9.87231e-05 0.536577 0.86983
269 1 0.0352975 0.571923 0.749016
237 1 0.034518 0.500214 0.744979
257 1 0.0986593 0.569452 0.983804
268 1 0.0661404 0.535675 0.863138
272 1 0.0979648 0.57014 0.735673
187 1 0.09773 0.502483 0.994188
271 1 0.128333 0.535588 0.851509
260 1 0.159496 0.570666 0.981323
274 1 0.189817 0.534759 0.870266
275 1 0.159489 0.575769 0.744669
240 1 0.221541 0.500331 0.753883
192 1 0.220254 0.500038 0.996494
276 1 0.223113 0.570527 0.756147
321 1 0.00187277 0.609311 0.870851
327 1 0.0343884 0.642167 0.745134
259 1 0.0987559 0.642169 0.99808
322 1 0.0656794 0.606991 0.876444
331 1 0.0985494 0.646181 0.749835
323 1 0.128793 0.606647 0.86299
262 1 0.159455 0.644035 0.992357
324 1 0.191961 0.605461 0.867483
335 1 0.162598 0.647863 0.756148
339 1 0.227057 0.64322 0.768104
310 1 0.0380678 0.70848 0.999118
326 1 0.00395397 0.679059 0.868314
330 1 0.0369634 0.714111 0.739302
385 1 0.00897141 0.747998 0.88049
313 1 0.095131 0.713049 0.991315
329 1 0.0665681 0.675807 0.865839
334 1 0.0957668 0.715098 0.750145
333 1 0.128965 0.678348 0.880171
387 1 0.129754 0.748688 0.876615
337 1 0.193712 0.675893 0.886825
338 1 0.164287 0.716712 0.755181
340 1 0.222137 0.714706 0.76041
390 1 0.00137998 0.821104 0.869869
391 1 0.0358959 0.789291 0.757343
315 1 0.0966835 0.785041 0.989688
386 1 0.0662279 0.752202 0.869152
393 1 0.0678882 0.824075 0.875293
395 1 0.095419 0.784185 0.738643
397 1 0.128643 0.821755 0.871263
388 1 0.191546 0.754321 0.882969
399 1 0.16047 0.78544 0.754674
401 1 0.190416 0.823934 0.892956
403 1 0.221916 0.791478 0.75278
394 1 0.0370081 0.858296 0.758692
441 3 0.00650421 0.892778 0.875
398 1 0.0992924 0.857639 0.753257
442 3 0.0682062 0.892778 0.875
443 3 0.129908 0.892778 0.875
402 1 0.158388 0.857615 0.754444
444 3 0.19161 0.892778 0.875
404 1 0.223285 0.858484 0.752117
446 3 0.00650421 0.964192 0.875
447 3 0.0373552 0.928485 0.75
450 3 0.0373552 0.999899 0.75
449 3 0.0682062 0.964192 0.875
451 3 0.0990571 0.928485 0.75
454 3 0.0990571 0.999899 0.75
453 3 0.129908 0.964192 0.875
455 3 0.160759 0.928485 0.75
457 3 0.19161 0.964192 0.875
458 3 0.160759 0.999899 0.75
460 3 0.222461 0.999899 0.75
459 3 0.222461 0.928485 0.75
465 2 0.284163 0.000100995 0.25
469 2 0.253312 0.0358081 0.125
470 2 0.284163 0.000100995 0
472 2 0.284163 0.0715151 0
503 2 0.284163 0.0715151 0.25
466 2 0.345865 0.000100995 0.25
471 2 0.315014 0.0358081 0.125
473 2 0.345865 0.000100995 0
475 2 0.345865 0.0715151 0
507 2 0.345865 0.0715151 0.25
474 2 0.376716 0.0358081 0.125
467 2 0.407567 0.000100995 0.25
476 2 0.407567 0.000100995 0
477 2 0.438418 0.0358081 0.125
478 2 0.407567 0.0715151 0
511 2 0.407567 0.0715151 0.25
468 2 0.469269 0.000100995 0.25
479 2 0.469269 0.000100995 0
480 2 0.469269 0.0715151 0
515 2 0.469269 0.0715151 0.25
501 2 0.253312 0.107222 0.125
506 1 0.280983 0.142567 0.247571
518 1 0.282893 0.144829 0.0022645
504 2 0.315014 0.107222 0.125
510 1 0.34463 0.144668 0.243002
521 1 0.346939 0.143269 0.0014702
508 2 0.376716 0.107222 0.125
512 2 0.438418 0.107222 0.125
514 1 0.40654 0.145431 0.243098
516 1 0.473079 0.149516 0.252226
527 1 0.470503 0.142045 0.00632289
517 1 0.251977 0.181582 0.12503
567 1 0.282935 0.215824 0.237162
519 1 0.31353 0.181636 0.115857
571 1 0.342966 0.216956 0.243364
522 1 0.37786 0.177885 0.126127
572 1 0.375483 0.249481 0.129001
525 1 0.440179 0.177346 0.142112
526 1 0.409207 0.212928 0.0208218
575 1 0.410033 0.214868 0.267847
565 1 0.254624 0.258284 0.12901
570 1 0.28752 0.294919 0.247691
581 1 0.255331 0.327666 0.121857
568 1 0.312558 0.252126 0.122063
574 1 0.347374 0.287584 0.233996
583 1 0.318733 0.328778 0.131369
628 1 0.253985 0.396777 0.127888
584 1 0.285307 0.361112 0.00195394
626 1 0.2879 0.365383 0.263729
625 1 0.319113 0.396849 0.129843
622 1 0.252483 0.465386 0.11203
623 1 0.284551 0.43426 0.24558
620 1 0.314238 0.467482 0.130252
485 2 0.253312 0.0358081 0.375
486 2 0.253312 0.0358081 0.625
487 2 0.284163 0.000100995 0.5
490 2 0.284163 0.0715151 0.5
488 2 0.315014 0.0358081 0.375
489 2 0.315014 0.0358081 0.625
491 2 0.345865 0.000100995 0.5
494 2 0.345865 0.0715151 0.5
492 2 0.376716 0.0358081 0.375
493 2 0.376716 0.0358081 0.625
495 2 0.407567 0.000100995 0.5
496 2 0.438418 0.0358081 0.375
497 2 0.438418 0.0358081 0.625
498 2 0.407567 0.0715151 0.5
499 2 0.469269 0.000100995 0.5
500 2 0.469269 0.0715151 0.5
502 2 0.253312 0.107222 0.375
533 2 0.253312 0.107222 0.625
551 1 0.283786 0.139694 0.493276
505 2 0.315014 0.107222 0.375
536 2 0.315014 0.107222 0.625
555 1 0.346315 0.142968 0.486691
509 2 0.376716 0.107222 0.375
540 2 0.376716 0.107222 0.625
513 2 0.438418 0.107222 0.375
544 2 0.438418 0.107222 0.625
559 1 0.407459 0.1433 0.504436
563 1 0.472572 0.147085 0.498331
550 1 0.252775 0.176795 0.627517
554 1 0.284065 0.213008 0.491176
597 1 0.255657 0.248447 0.615393
549 1 0.253127 0.179063 0.373374
552 1 0.31178 0.177536 0.357612
553 1 0.314792 0.179341 0.628119
558 1 0.343865 0.209782 0.48708
556 1 0.3765 0.174871 0.368991
557 1 0.374666 0.179514 0.614878
573 1 0.374969 0.243156 0.372437
604 1 0.3762 0.247394 0.628892
560 1 0.43838 0.177211 0.39676
561 1 0.443129 0.185951 0.636419
562 1 0.40653 0.210491 0.513374
614 1 0.255812 0.322067 0.618326
566 1 0.253485 0.253764 0.373036
613 1 0.253686 0.326468 0.363759
615 1 0.284676 0.285529 0.492001
569 1 0.313694 0.250392 0.373033
600 1 0.317652 0.25183 0.610037
616 1 0.318289 0.324847 0.379428
617 1 0.319015 0.327852 0.631822
619 1 0.346954 0.283127 0.491326
609 1 0.253519 0.39783 0.625089
627 1 0.252236 0.395803 0.366205
618 1 0.284729 0.357232 0.499614
591 1 0.313233 0.396337 0.624867
624 1 0.321334 0.39278 0.382303
586 1 0.284253 0.430203 0.491628
587 1 0.255039 0.465364 0.620784
588 1 0.251764 0.465811 0.369935
579 1 0.316529 0.465178 0.624548
580 1 0.319515 0.466161 0.369212
481 2 0.284163 0.000100995 0.75
529 2 0.253312 0.0358081 0.875
535 2 0.284163 0.0715151 0.75
482 2 0.345865 0.000100995 0.75
530 2 0.315014 0.0358081 0.875
539 2 0.345865 0.0715151 0.75
531 2 0.376716 0.0358081 0.875
483 2 0.407567 0.000100995 0.75
532 2 0.438418 0.0358081 0.875
543 2 0.407567 0.0715151 0.75
484 2 0.469269 0.000100995 0.75
547 2 0.469269 0.0715151 0.75
534 2 0.253312 0.107222 0.875
538 1 0.283341 0.140567 0.746374
537 2 0.315014 0.107222 0.875
542 1 0.346571 0.14265 0.752001
541 2 0.376716 0.107222 0.875
524 1 0.407528 0.142656 0.995066
545 2 0.438418 0.107222 0.875
546 1 0.408285 0.145333 0.744799
548 1 0.468387 0.141373 0.751387
520 1 0.285424 0.215318 0.989891
593 1 0.254134 0.179031 0.875537
599 1 0.283822 0.213684 0.748198
523 1 0.344719 0.213712 0.993145
594 1 0.313857 0.177845 0.866807
603 1 0.345538 0.215293 0.752929
601 1 0.313053 0.249244 0.850021
595 1 0.376144 0.179868 0.871193
596 1 0.438512 0.175572 0.878548
607 1 0.407098 0.215906 0.764071
582 1 0.285497 0.289213 0.996044
598 1 0.255819 0.250125 0.867548
602 1 0.285474 0.288898 0.733063
611 1 0.256577 0.32271 0.877245
585 1 0.34055 0.282664 0.986488
606 1 0.344616 0.289271 0.745756
610 1 0.313783 0.322006 0.868562
605 1 0.378006 0.251691 0.889006
592 1 0.28424 0.359923 0.737714
608 1 0.252655 0.394993 0.87269
590 1 0.316096 0.391605 0.870907
621 1 0.283533 0.429347 0.992663
589 1 0.284577 0.431626 0.759053
612 1 0.282973 0.498199 0.992769
576 1 0.252569 0.464017 0.872879
564 1 0.317235 0.460502 0.880165
629 1 0.251789 0.536538 0.120475
633 1 0.288486 0.571863 0.26403
642 1 0.288826 0.568278 0.0165267
577 1 0.284976 0.503187 0.248585
631 1 0.319143 0.531757 0.139665
641 1 0.253456 0.607508 0.137112
644 1 0.287909 0.639535 0.0112036
683 1 0.286816 0.642796 0.247309
643 1 0.323037 0.601713 0.141729
686 1 0.286858 0.713147 0.24994
697 1 0.253353 0.745808 0.114864
698 1 0.287333 0.709275 0.00925847
681 1 0.255772 0.677548 0.133793
684 1 0.320231 0.671769 0.131658
690 1 0.344261 0.711846 0.249874
699 1 0.316185 0.747647 0.118223
702 1 0.372879 0.747999 0.141279
745 1 0.252677 0.818172 0.127267
747 1 0.285112 0.781855 0.234994
703 1 0.343111 0.791448 0.0052779
748 1 0.311249 0.820977 0.111434
751 1 0.342824 0.787329 0.251323
752 1 0.376618 0.822384 0.142467
706 1 0.405596 0.786622 0.0275545
755 1 0.406928 0.782657 0.27536
756 1 0.437363 0.821981 0.133676
750 1 0.283673 0.855649 0.246505
761 3 0.253312 0.892778 0.125
754 1 0.345108 0.85878 0.256575
763 3 0.315014 0.892778 0.125
765 1 0.345643 0.858387 0.0160515
766 3 0.376716 0.892778 0.125
758 1 0.406653 0.85493 0.262943
768 1 0.405874 0.858633 0.0136608
769 3 0.438418 0.892778 0.125
760 1 0.469867 0.858062 0.253098
771 1 0.470733 0.853277 0.00930972
676 3 0.284163 0.999899 0
694 3 0.284163 0.999899 0.25
704 3 0.284163 0.928485 0.25
707 3 0.253312 0.964192 0.125
764 3 0.284163 0.928485 0
675 3 0.345865 0.999899 0
689 3 0.345865 0.999899 0.25
693 3 0.345865 0.928485 0.25
696 3 0.315014 0.964192 0.125
767 3 0.345865 0.928485 0
692 3 0.376716 0.964192 0.125
674 3 0.407567 0.999899 0
679 3 0.407567 0.999899 0.25
687 3 0.438418 0.964192 0.125
688 3 0.407567 0.928485 0.25
770 3 0.407567 0.928485 0
673 3 0.469269 0.999899 0
677 3 0.469269 0.999899 0.25
678 3 0.469269 0.928485 0.25
772 3 0.469269 0.928485 0
630 1 0.251691 0.535179 0.360127
653 1 0.254259 0.534199 0.625412
667 1 0.284224 0.567242 0.497329
578 1 0.28703 0.500053 0.492919
632 1 0.318767 0.537277 0.393044
655 1 0.316999 0.537075 0.636833
665 1 0.251099 0.60534 0.375429
670 1 0.279898 0.640666 0.499587
666 1 0.253465 0.603682 0.624119
668 1 0.317156 0.612749 0.38538
669 1 0.309982 0.606949 0.624038
682 1 0.251654 0.678753 0.372841
713 1 0.252695 0.682966 0.637617
729 1 0.253237 0.746775 0.376989
731 1 0.282227 0.71354 0.519397
685 1 0.313015 0.68176 0.387166
716 1 0.314409 0.676116 0.619055
732 1 0.316021 0.749506 0.386545
733 1 0.314988 0.74953 0.623579
735 1 0.346231 0.711988 0.507246
737 1 0.38014 0.7466 0.6485
730 1 0.253097 0.753971 0.632198
734 1 0.284093 0.784398 0.495767
746 1 0.254186 0.816036 0.378896
777 1 0.254254 0.824915 0.624906
738 1 0.345452 0.784752 0.516207
749 1 0.313579 0.821643 0.368632
780 1 0.314709 0.823014 0.619526
736 1 0.374235 0.752104 0.385888
753 1 0.37391 0.821352 0.387585
784 1 0.377799 0.819812 0.645733
742 1 0.406543 0.783993 0.531905
757 1 0.443461 0.813983 0.381848
788 1 0.439593 0.819755 0.627065
1097 1 0.495261 0.813436 0.384163
740 1 0.283699 0.856924 0.497445
741 3 0.253312 0.892778 0.625
743 3 0.253312 0.892778 0.375
726 1 0.34632 0.858225 0.502303
728 3 0.315014 0.892778 0.625
739 3 0.315014 0.892778 0.375
724 3 0.376716 0.892778 0.625
725 3 0.376716 0.892778 0.375
719 3 0.438418 0.892778 0.625
720 3 0.438418 0.892778 0.375
721 1 0.408674 0.853134 0.497317
711 1 0.468947 0.859804 0.49707
637 3 0.284163 0.999899 0.5
662 3 0.253312 0.964192 0.625
705 3 0.253312 0.964192 0.375
727 3 0.284163 0.928485 0.5
636 3 0.345865 0.999899 0.5
659 3 0.315014 0.964192 0.625
695 3 0.315014 0.964192 0.375
723 3 0.345865 0.928485 0.5
650 3 0.376716 0.964192 0.625
691 3 0.376716 0.964192 0.375
635 3 0.407567 0.999899 0.5
646 3 0.438418 0.964192 0.625
680 3 0.438418 0.964192 0.375
712 3 0.407567 0.928485 0.5
634 3 0.469269 0.999899 0.5
708 3 0.469269 0.928485 0.5
654 1 0.253176 0.536417 0.880562
657 1 0.284824 0.567744 0.758945
528 1 0.287512 0.500645 0.750578
656 1 0.317721 0.534251 0.89531
709 1 0.256107 0.605289 0.898459
715 1 0.280141 0.64467 0.751684
710 1 0.314719 0.602635 0.864119
714 1 0.255554 0.678486 0.898574
718 1 0.285161 0.719057 0.764355
773 1 0.250211 0.749593 0.877882
701 1 0.347267 0.714042 0.997875
717 1 0.316164 0.672261 0.866452
722 1 0.349336 0.711781 0.759015
778 1 0.254642 0.821247 0.865245
700 1 0.283605 0.780461 0.982804
779 1 0.2847 0.786178 0.739908
774 1 0.316958 0.750727 0.870517
781 1 0.312778 0.824059 0.868425
783 1 0.344386 0.788788 0.755146
775 1 0.37591 0.754318 0.885235
785 1 0.377494 0.821021 0.894086
776 1 0.43869 0.823132 0.883539
787 1 0.408438 0.786755 0.771334
762 1 0.282274 0.854441 0.99634
672 3 0.253312 0.892778 0.875
782 1 0.285003 0.857574 0.757
671 3 0.315014 0.892778 0.875
786 1 0.345488 0.856531 0.751726
664 3 0.376716 0.892778 0.875
663 3 0.438418 0.892778 0.875
759 1 0.408733 0.856493 0.752458
744 1 0.470386 0.854723 0.760395
652 3 0.284163 0.999899 0.75
660 3 0.284163 0.928485 0.75
661 3 0.253312 0.964192 0.875
648 3 0.345865 0.999899 0.75
651 3 0.345865 0.928485 0.75
658 3 0.315014 0.964192 0.875
649 3 0.376716 0.964192 0.875
647 3 0.407567 0.928485 0.75
645 3 0.438418 0.964192 0.875
640 3 0.407567 0.999899 0.75
639 3 0.469269 0.928485 0.75
638 3 0.469269 0.999899 0.75
789 2 0.530971 0.000100995 0.25
794 2 0.530971 0.000100995 0
796 2 0.530971 0.0715151 0
830 2 0.530971 0.0715151 0.25
793 2 0.50012 0.0358081 0.125
790 2 0.592673 0.000100995 0.25
795 2 0.561822 0.0358081 0.125
797 2 0.592673 0.000100995 0
799 2 0.592673 0.0715151 0
834 2 0.592673 0.0715151 0.25
798 2 0.623524 0.0358081 0.125
791 2 0.654375 0.000100995 0.25
800 2 0.654375 0.000100995 0
801 2 0.685226 0.0358081 0.125
802 2 0.654375 0.0715151 0
838 2 0.654375 0.0715151 0.25
792 2 0.716077 0.000100995 0.25
803 2 0.716077 0.000100995 0
804 2 0.746928 0.0358081 0.125
805 2 0.716077 0.0715151 0
842 2 0.716077 0.0715151 0.25
833 1 0.529457 0.143572 0.257013
847 1 0.531537 0.140806 0.00677623
828 2 0.50012 0.107222 0.125
831 2 0.561822 0.107222 0.125
837 1 0.590747 0.140315 0.25008
850 1 0.593566 0.145099 0.00170565
835 2 0.623524 0.107222 0.125
839 2 0.685226 0.107222 0.125
841 1 0.654403 0.143441 0.260114
853 1 0.654674 0.141623 0.0043559
843 2 0.746928 0.107222 0.125
845 1 0.716517 0.143504 0.265228
856 1 0.715972 0.141457 0.0139968
846 1 0.503016 0.183178 0.123265
848 1 0.560258 0.177372 0.127582
906 1 0.592025 0.209401 0.247872
851 1 0.623403 0.17797 0.123909
907 1 0.622631 0.247959 0.134292
854 1 0.683098 0.177216 0.133287
855 1 0.654469 0.214179 0.00718437
910 1 0.653871 0.214431 0.260539
857 1 0.746424 0.179164 0.130424
914 1 0.715192 0.213291 0.252411
911 1 0.681859 0.251323 0.133831
913 1 0.651849 0.291306 0.267784
925 1 0.652153 0.290742 0.0115433
926 1 0.683313 0.324491 0.134857
915 1 0.744181 0.250295 0.127088
917 1 0.713379 0.287314 0.264195
928 1 0.713383 0.285553 0.0144337
929 1 0.746084 0.317272 0.132332
957 1 0.688118 0.396724 0.132883
930 1 0.715967 0.357588 0.00210633
955 1 0.716813 0.355057 0.252092
954 1 0.748888 0.389334 0.11613
940 1 0.688964 0.463981 0.136418
938 1 0.749411 0.461379 0.105892
941 1 0.721223 0.426985 0.245362
812 2 0.530971 0.000100995 0.5
815 2 0.530971 0.0715151 0.5
811 2 0.50012 0.0358081 0.625
810 2 0.50012 0.0358081 0.375
813 2 0.561822 0.0358081 0.375
814 2 0.561822 0.0358081 0.625
816 2 0.592673 0.000100995 0.5
819 2 0.592673 0.0715151 0.5
817 2 0.623524 0.0358081 0.375
818 2 0.623524 0.0358081 0.625
820 2 0.654375 0.000100995 0.5
821 2 0.685226 0.0358081 0.375
822 2 0.685226 0.0358081 0.625
823 2 0.654375 0.0715151 0.5
824 2 0.716077 0.000100995 0.5
825 2 0.746928 0.0358081 0.375
826 2 0.746928 0.0358081 0.625
827 2 0.716077 0.0715151 0.5
884 1 0.529784 0.146218 0.508802
864 2 0.50012 0.107222 0.625
829 2 0.50012 0.107222 0.375
832 2 0.561822 0.107222 0.375
867 2 0.561822 0.107222 0.625
888 1 0.592019 0.146743 0.502127
836 2 0.623524 0.107222 0.375
871 2 0.623524 0.107222 0.625
840 2 0.685226 0.107222 0.375
875 2 0.685226 0.107222 0.625
892 1 0.653533 0.144191 0.506111
844 2 0.746928 0.107222 0.375
879 2 0.746928 0.107222 0.625
896 1 0.716533 0.143444 0.509444
882 1 0.504335 0.187958 0.37831
883 1 0.50041 0.181799 0.648851
885 1 0.56026 0.176831 0.371571
886 1 0.561149 0.179979 0.622234
891 1 0.58989 0.215869 0.495894
889 1 0.622596 0.181032 0.384325
890 1 0.62264 0.183602 0.62734
893 1 0.685082 0.179779 0.387217
894 1 0.686851 0.180388 0.635943
895 1 0.653945 0.219866 0.505063
897 1 0.747574 0.181047 0.387046
898 1 0.748006 0.179736 0.630133
899 1 0.714283 0.218101 0.49773
916 1 0.74587 0.248863 0.369735
908 1 0.622028 0.253713 0.371001
943 1 0.622014 0.258388 0.627348
964 1 0.653515 0.291428 0.510218
912 1 0.681634 0.254972 0.376226
963 1 0.683559 0.328636 0.388259
947 1 0.684232 0.253479 0.641451
962 1 0.684195 0.321812 0.642311
951 1 0.748384 0.250766 0.609284
960 1 0.748376 0.320838 0.379718
961 1 0.714933 0.290203 0.514827
959 1 0.748097 0.324197 0.609457
924 1 0.683565 0.38969 0.638516
956 1 0.688197 0.398911 0.381286
921 1 0.747106 0.397404 0.625812
945 1 0.746527 0.39234 0.381516
958 1 0.715639 0.361733 0.518072
909 1 0.680942 0.462483 0.64217
918 1 0.686766 0.46949 0.38618
903 1 0.748026 0.468587 0.618653
904 1 0.748527 0.464729 0.379489
905 1 0.716763 0.431989 0.513488
806 2 0.530971 0.000100995 0.75
866 2 0.530971 0.0715151 0.75
859 2 0.50012 0.0358081 0.875
807 2 0.592673 0.000100995 0.75
860 2 0.561822 0.0358081 0.875
870 2 0.592673 0.0715151 0.75
861 2 0.623524 0.0358081 0.875
808 2 0.654375 0.000100995 0.75
862 2 0.685226 0.0358081 0.875
874 2 0.654375 0.0715151 0.75
809 2 0.716077 0.000100995 0.75
863 2 0.746928 0.0358081 0.875
878 2 0.716077 0.0715151 0.75
869 1 0.531416 0.142837 0.757345
865 2 0.50012 0.107222 0.875
868 2 0.561822 0.107222 0.875
873 1 0.593333 0.145719 0.753287