ITEM: TIMESTEP
0
ITEM: NUMBER OF ATOMS
1708
ITEM: BOX BOUNDS ss ss pp
-3.7311383536664405e-01 5.6819311407471289e+01
-3.5200000000000006e-03 3.4849742176873065e+01
0.0000000000000000e+00 9.9560630400000001e+00
ITEM: ATOMS id type xs ys zs
1 2 0.0372971 0.000100995 0.25
5 2 0.00652383 0.0358081 0.125
6 2 0.0372971 0.000100995 0
8 2 0.0372971 0.0715151 0
39 2 0.0372971 0.0715151 0.25
2 2 0.0988438 0.000100995 0.25
7 2 0.0680704 0.0358081 0.125
9 2 0.0988438 0.000100995 0
11 2 0.0988438 0.0715151 0
43 2 0.0988438 0.0715151 0.25
10 2 0.129617 0.0358081 0.125
3 2 0.16039 0.000100995 0.25
12 2 0.16039 0.000100995 0
13 2 0.191164 0.0358081 0.125
14 2 0.16039 0.0715151 0
47 2 0.16039 0.0715151 0.25
4 2 0.221937 0.000100995 0.25
15 2 0.221937 0.000100995 0
16 2 0.221937 0.0715151 0
51 2 0.221937 0.0715151 0.25
37 2 0.00652383 0.107222 0.125
42 1 0.0368822 0.140481 0.252361
54 1 0.0366858 0.141368 0.00742539
40 2 0.0680704 0.107222 0.125
46 1 0.100245 0.143263 0.248934
44 2 0.129617 0.107222 0.125
48 2 0.191164 0.107222 0.125
50 1 0.159904 0.14172 0.257742
52 1 0.221866 0.143182 0.256405
63 1 0.222475 0.14401 0.000960759
53 1 0.0033532 0.174631 0.141617
56 1 0.0355677 0.209809 0.00312357
103 1 0.036694 0.208843 0.254421
101 1 0.00747896 0.246466 0.125393
55 1 0.0687711 0.175808 0.128007
59 1 0.0969147 0.21095 0.0020428
107 1 0.0992679 0.211548 0.257188
104 1 0.0647247 0.245509 0.112465
58 1 0.130223 0.175797 0.133563
108 1 0.129028 0.24646 0.117437
61 1 0.192079 0.179049 0.125701
62 1 0.161173 0.213467 0.00564675
111 1 0.162021 0.210324 0.257939
115 1 0.223101 0.217911 0.254422
106 1 0.0385789 0.284373 0.242002
117 1 0.00460289 0.316364 0.124004
110 1 0.0962552 0.280362 0.22175
119 1 0.0667607 0.322813 0.114546
122 1 0.125994 0.315043 0.11643
112 1 0.191598 0.250078 0.120225
114 1 0.159896 0.280544 0.242685
125 1 0.189178 0.319316 0.119115
116 1 0.22116 0.288259 0.233597
120 1 0.0359434 0.359604 0.00319729
165 1 0.00629164 0.398027 0.120499
167 1 0.0366251 0.354813 0.242624
168 1 0.0653527 0.393376 0.122215
171 1 0.0987901 0.357447 0.233191
172 1 0.129784 0.389692 0.123158
175 1 0.15869 0.351739 0.248121
176 1 0.188366 0.388584 0.122687
179 1 0.221507 0.358445 0.243284
170 1 0.0386705 0.427712 0.249256
181 1 0.00748288 0.467716 0.123006
174 1 0.0981376 0.430755 0.250434
183 1 0.0658448 0.471246 0.128903
185 1 0.0972593 0.428951 0.013861
186 1 0.129288 0.461339 0.124696
231 1 0.15904 0.496378 0.243723
178 1 0.160233 0.422262 0.263435
189 1 0.190045 0.460017 0.119144
180 1 0.220466 0.427693 0.242225
191 1 0.221506 0.427827 0.00383357
232 1 0.220337 0.498249 0.245785
21 2 0.00652383 0.0358081 0.375
22 2 0.00652383 0.0358081 0.625
23 2 0.0372971 0.000100995 0.5
26 2 0.0372971 0.0715151 0.5
24 2 0.0680704 0.0358081 0.375
25 2 0.0680704 0.0358081 0.625
27 2 0.0988438 0.000100995 0.5
30 2 0.0988438 0.0715151 0.5
28 2 0.129617 0.0358081 0.375
29 2 0.129617 0.0358081 0.625
31 2 0.16039 0.000100995 0.5
32 2 0.191164 0.0358081 0.375
33 2 0.191164 0.0358081 0.625
34 2 0.16039 0.0715151 0.5
35 2 0.221937 0.000100995 0.5
36 2 0.221937 0.0715151 0.5
38 2 0.00652383 0.107222 0.375
69 2 0.00652383 0.107222 0.625
87 1 0.0370966 0.140146 0.505388
41 2 0.0680704 0.107222 0.375
72 2 0.0680704 0.107222 0.625
91 1 0.0981593 0.140806 0.497653
45 2 0.129617 0.107222 0.375
76 2 0.129617 0.107222 0.625
49 2 0.191164 0.107222 0.375
80 2 0.191164 0.107222 0.625
95 1 0.162099 0.1448 0.506975
99 1 0.221761 0.142119 0.506239
85 1 0.00357361 0.180695 0.38936
86 1 0.00815374 0.175867 0.648156
90 1 0.0367827 0.210849 0.491837
102 1 0.00975224 0.247972 0.366423
88 1 0.0672787 0.174172 0.381207
89 1 0.067499 0.17441 0.626274
94 1 0.0991639 0.207428 0.501481
105 1 0.0671235 0.246105 0.354917
136 1 0.0669499 0.243473 0.60993
92 1 0.130754 0.174867 0.383879
93 1 0.131264 0.178079 0.630901
109 1 0.130449 0.243698 0.377566
140 1 0.129136 0.245446 0.627043
96 1 0.194276 0.179001 0.379895
97 1 0.194505 0.180215 0.636915
98 1 0.161368 0.2154 0.517999
100 1 0.224199 0.214075 0.502756
133 1 0.00849463 0.250622 0.619322
149 1 0.00505256 0.319086 0.376834
150 1 0.00985601 0.319187 0.615069
151 1 0.0382791 0.284288 0.486403
152 1 0.0697817 0.318392 0.353316
153 1 0.068448 0.316049 0.611276
155 1 0.0972869 0.276207 0.473975
156 1 0.128344 0.316317 0.359823
157 1 0.127222 0.314231 0.618896
113 1 0.190766 0.252075 0.37371
144 1 0.193835 0.250449 0.616017
159 1 0.160077 0.285416 0.495235
160 1 0.190629 0.322505 0.37406
161 1 0.194181 0.320289 0.621789
163 1 0.222668 0.288613 0.486877
154 1 0.0401639 0.353019 0.485635
166 1 0.0083706 0.387396 0.381107
197 1 0.00804658 0.389386 0.621181
158 1 0.0983527 0.353389 0.485238
169 1 0.068688 0.390864 0.360111
200 1 0.0694036 0.387424 0.614899
173 1 0.127928 0.392482 0.375288
204 1 0.127709 0.391776 0.621712
162 1 0.1588 0.356845 0.497681
177 1 0.19082 0.393606 0.384223
208 1 0.189379 0.389596 0.630436
164 1 0.223792 0.361952 0.509069
213 1 0.00884082 0.45963 0.359958
214 1 0.00121605 0.46065 0.616547
215 1 0.0397137 0.424013 0.50434
218 1 0.0345555 0.498027 0.50667
216 1 0.0670979 0.464815 0.388025
217 1 0.0679872 0.46404 0.631721
219 1 0.098396 0.427691 0.501458
222 1 0.0987986 0.498178 0.483583
220 1 0.13093 0.463809 0.374515
221 1 0.128237 0.463195 0.613778
223 1 0.159499 0.429635 0.510981
224 1 0.190011 0.46313 0.383869
225 1 0.188621 0.466997 0.633155
227 1 0.220915 0.434413 0.509424
17 2 0.0372971 0.000100995 0.75
65 2 0.00652383 0.0358081 0.875
71 2 0.0372971 0.0715151 0.75
18 2 0.0988438 0.000100995 0.75
66 2 0.0680704 0.0358081 0.875
75 2 0.0988438 0.0715151 0.75
67 2 0.129617 0.0358081 0.875
19 2 0.16039 0.000100995 0.75
68 2 0.191164 0.0358081 0.875
79 2 0.16039 0.0715151 0.75
20 2 0.221937 0.000100995 0.75
83 2 0.221937 0.0715151 0.75
70 2 0.00652383 0.107222 0.875
74 1 0.0376505 0.140822 0.763043
73 2 0.0680704 0.107222 0.875
78 1 0.0992714 0.142941 0.747997
57 1 0.100937 0.142585 0.992068
77 2 0.129617 0.107222 0.875
60 1 0.160366 0.14516 0.991144
81 2 0.191164 0.107222 0.875
82 1 0.161994 0.144391 0.753173
84 1 0.220648 0.139744 0.758696
129 1 0.00544922 0.175333 0.8928
135 1 0.0358551 0.214966 0.752331
130 1 0.0666744 0.177006 0.878558
139 1 0.0977851 0.210534 0.748367
137 1 0.0660752 0.247791 0.865054
131 1 0.130948 0.17972 0.883219
141 1 0.125301 0.247242 0.877261
132 1 0.19171 0.179694 0.883532
143 1 0.162441 0.215248 0.761357
64 1 0.222126 0.217293 0.999357
147 1 0.224495 0.215008 0.7511
118 1 0.0348655 0.28393 0.989372
134 1 0.00371481 0.254768 0.860502
138 1 0.038336 0.285846 0.743097
193 1 0.00559622 0.326848 0.866965
121 1 0.0929383 0.284709 0.985294
142 1 0.0967356 0.280584 0.734442
194 1 0.0655197 0.322267 0.864079
195 1 0.124622 0.316244 0.863846
124 1 0.158265 0.282827 0.987629
145 1 0.193203 0.251464 0.865815
146 1 0.160599 0.284102 0.742205
196 1 0.19055 0.319983 0.863152
127 1 0.221078 0.289127 0.992533
148 1 0.225866 0.285089 0.744692
198 1 0.00766114 0.397193 0.874178
199 1 0.0374876 0.35926 0.746204
123 1 0.0964723 0.354945 0.994522
201 1 0.0666743 0.396168 0.875272
203 1 0.0957207 0.355135 0.74096
205 1 0.127229 0.387212 0.869725
126 1 0.157544 0.351075 0.99705
207 1 0.156387 0.352681 0.740446
209 1 0.189154 0.387218 0.87356
128 1 0.222595 0.358089 0.995945
211 1 0.224662 0.35387 0.749473
182 1 0.0364939 0.433681 0.998468
233 1 0.00159639 0.468064 0.862193
202 1 0.0355462 0.43153 0.745045
238 1 0.0994525 0.498538 0.74391
234 1 0.0677079 0.46615 0.874421
206 1 0.0982139 0.42626 0.751174
235 1 0.127683 0.462987 0.87295
190 1 0.159471 0.495287 0.995212
188 1 0.15803 0.42283 0.996738
239 1 0.158419 0.498649 0.748623
210 1 0.159225 0.424552 0.747802
236 1 0.19093 0.460024 0.871717
212 1 0.220687 0.42299 0.752772
192 1 0.220723 0.499785 0.997778
241 1 0.00312321 0.539253 0.139742
245 1 0.0376103 0.572369 0.25958
254 1 0.0332754 0.571679 0.0036187
229 1 0.0356344 0.50327 0.252751
243 1 0.065517 0.537666 0.110727
230 1 0.0990139 0.501953 0.243595
248 1 0.101152 0.571092 0.232562
246 1 0.129773 0.532312 0.103848
249 1 0.189125 0.533033 0.118387
251 1 0.158879 0.574124 0.22972
252 1 0.21872 0.569415 0.246072
263 1 0.218357 0.571593 0.00551899
253 1 0.00207761 0.607839 0.124538
256 1 0.0347662 0.639808 0.00336903
295 1 0.0361725 0.640492 0.244193
255 1 0.0686849 0.607285 0.126286
299 1 0.0999726 0.642826 0.257851
258 1 0.12942 0.607435 0.111688
261 1 0.188844 0.609633 0.117921
303 1 0.157895 0.646226 0.239371
264 1 0.221856 0.642037 0.0142155
307 1 0.220025 0.643233 0.255983
293 1 0.00371092 0.674974 0.123003
298 1 0.0369408 0.711084 0.247018
309 1 0.00799712 0.748309 0.116083
296 1 0.066847 0.676936 0.12143
302 1 0.0962245 0.714815 0.239068
300 1 0.127445 0.681878 0.115937
314 1 0.126054 0.749894 0.118475
304 1 0.189007 0.679052 0.129378
306 1 0.157034 0.718118 0.256551
316 1 0.1608 0.714723 0.00195641
308 1 0.219866 0.713707 0.249906
319 1 0.221397 0.713201 0.00756758
312 1 0.0364609 0.789884 0.00118609
357 1 0.0034051 0.821651 0.119031
359 1 0.0375008 0.788209 0.243866
311 1 0.0661909 0.750599 0.106357
360 1 0.0674672 0.824729 0.125411
363 1 0.0959322 0.784751 0.240754
364 1 0.127315 0.8207 0.123576
317 1 0.189791 0.754379 0.132625
318 1 0.158692 0.785933 0.00319232
367 1 0.158438 0.7877 0.248967
368 1 0.190833 0.822218 0.135046
320 1 0.222085 0.786569 0.00950221
371 1 0.220299 0.786996 0.258464
362 1 0.0369187 0.860324 0.242204
373 3 0.00652383 0.892778 0.125
374 1 0.0360776 0.856696 0.0022807
366 1 0.0983584 0.857094 0.257123
375 3 0.0680704 0.892778 0.125
377 1 0.0983225 0.858269 0.00686662
378 3 0.129617 0.892778 0.125
370 1 0.159551 0.85662 0.253362
380 1 0.160124 0.856616 0.00506221
381 3 0.191164 0.892778 0.125
372 1 0.220822 0.858267 0.25721
383 1 0.221004 0.85937 0.00804695
376 3 0.0372971 0.928485 0
421 3 0.00652383 0.964192 0.125
423 3 0.0372971 0.928485 0.25
426 3 0.0372971 0.999899 0.25
437 3 0.0372971 0.999899 0
379 3 0.0988438 0.928485 0
424 3 0.0680704 0.964192 0.125
427 3 0.0988438 0.928485 0.25
430 3 0.0988438 0.999899 0.25
438 3 0.0988438 0.999899 0
428 3 0.129617 0.964192 0.125
382 3 0.16039 0.928485 0
431 3 0.16039 0.928485 0.25
432 3 0.191164 0.964192 0.125
434 3 0.16039 0.999899 0.25
439 3 0.16039 0.999899 0
384 3 0.221937 0.928485 0
435 3 0.221937 0.928485 0.25
436 3 0.221937 0.999899 0.25
440 3 0.221937 0.999899 0
242 1 0.00324086 0.530363 0.389628
265 1 0.00700362 0.538576 0.617195
279 1 0.0372417 0.573779 0.501105
244 1 0.0689171 0.53775 0.368566
267 1 0.0684511 0.534807 0.620357
283 1 0.10006 0.571795 0.485861
247 1 0.130377 0.535356 0.362062
270 1 0.131572 0.537661 0.612018
250 1 0.187373 0.534817 0.369739
273 1 0.189571 0.539191 0.621171
287 1 0.160446 0.57584 0.499501
226 1 0.158617 0.502046 0.500827
228 1 0.219518 0.505429 0.499914
291 1 0.220102 0.578133 0.501129
277 1 0.00573317 0.603436 0.382962
278 1 0.0017801 0.612622 0.619449
282 1 0.0370107 0.645622 0.500746
280 1 0.0689669 0.608211 0.374608
281 1 0.0692576 0.607973 0.622514
286 1 0.0992136 0.646706 0.499152
284 1 0.131248 0.608517 0.382611
285 1 0.128296 0.608508 0.622147
288 1 0.189016 0.610277 0.365256
289 1 0.191366 0.611629 0.623915
290 1 0.159945 0.645744 0.509446
292 1 0.22088 0.646377 0.490057
294 1 0.00600555 0.675038 0.370061
325 1 0.00479057 0.683372 0.627524
341 1 0.00849433 0.749714 0.375674
343 1 0.0377768 0.713385 0.483771
297 1 0.068299 0.678248 0.377691
328 1 0.066752 0.677605 0.622055
347 1 0.096143 0.716967 0.495467
301 1 0.128997 0.682658 0.38071
332 1 0.128666 0.681396 0.635501
305 1 0.190536 0.681855 0.37919
336 1 0.194743 0.681931 0.624437
351 1 0.161495 0.713786 0.512903
355 1 0.22043 0.716096 0.487501
342 1 0.00506521 0.755399 0.635556
346 1 0.0355716 0.789243 0.494874
358 1 0.00458443 0.822767 0.378433
389 1 0.00644445 0.824067 0.62543
344 1 0.0663906 0.750674 0.364663
345 1 0.0642201 0.752062 0.615882
350 1 0.0968359 0.786734 0.484161
361 1 0.0665363 0.823213 0.380279
392 1 0.0666201 0.82508 0.625373
348 1 0.1275 0.753736 0.371263
349 1 0.12881 0.750581 0.627208
365 1 0.126738 0.823393 0.373617
396 1 0.12805 0.819664 0.626466
352 1 0.189366 0.751263 0.370157
353 1 0.191942 0.754925 0.628891
354 1 0.159226 0.785942 0.50222
369 1 0.189577 0.820144 0.38584
400 1 0.189595 0.823882 0.637422
356 1 0.220904 0.785655 0.505732
405 3 0.00652383 0.892778 0.375
406 3 0.00652383 0.892778 0.625
407 1 0.035893 0.857541 0.503069
408 3 0.0680704 0.892778 0.375
409 3 0.0680704 0.892778 0.625
411 1 0.0983098 0.857432 0.50301
412 3 0.129617 0.892778 0.375
413 3 0.129617 0.892778 0.625
415 1 0.158182 0.857189 0.503153
416 3 0.191164 0.892778 0.375
417 3 0.191164 0.892778 0.625
419 1 0.220573 0.858529 0.501038
410 3 0.0372971 0.928485 0.5
422 3 0.00652383 0.964192 0.375
445 3 0.00652383 0.964192 0.625
461 3 0.0372971 0.999899 0.5
414 3 0.0988438 0.928485 0.5
425 3 0.0680704 0.964192 0.375
448 3 0.0680704 0.964192 0.625
462 3 0.0988438 0.999899 0.5
429 3 0.129617 0.964192 0.375
452 3 0.129617 0.964192 0.625
418 3 0.16039 0.928485 0.5
433 3 0.191164 0.964192 0.375
456 3 0.191164 0.964192 0.625
463 3 0.16039 0.999899 0.5
420 3 0.221937 0.928485 0.5
464 3 0.221937 0.999899 0.5
184 1 0.0342634 0.503297 0.984771
266 1 9.84746e-05 0.536706 0.870098
269 1 0.0352804 0.572026 0.749915
237 1 0.0344778 0.500266 0.745478
257 1 0.0984475 0.569608 0.984291
187 1 0.0975389 0.502582 0.994884
268 1 0.06602 0.535762 0.863889
272 1 0.0977967 0.57014 0.736212
271 1 0.128134 0.535632 0.852231
260 1 0.159152 0.570702 0.983763
274 1 0.188189 0.534045 0.870955
275 1 0.158922 0.575769 0.745263
240 1 0.220346 0.50258 0.755023
276 1 0.221176 0.570425 0.758029
321 1 0.00193841 0.609341 0.871475
327 1 0.0342927 0.642242 0.746125
259 1 0.0985344 0.642359 0.998736
322 1 0.0656218 0.607065 0.876876
331 1 0.0983694 0.64629 0.750767
323 1 0.12858 0.606757 0.863833
262 1 0.159268 0.644333 0.993281
324 1 0.190104 0.606297 0.868954
335 1 0.162064 0.64822 0.756653
339 1 0.222753 0.641963 0.752232
310 1 0.0379993 0.70848 0.999756
326 1 0.0039762 0.679236 0.869359
330 1 0.0369468 0.714202 0.739662
385 1 0.00907387 0.748117 0.881349
313 1 0.0949228 0.713171 0.991828
329 1 0.0664243 0.675829 0.866405
334 1 0.0955966 0.715248 0.750781
333 1 0.128743 0.678476 0.880728
387 1 0.129472 0.74872 0.877212
337 1 0.193407 0.677985 0.884513
338 1 0.163948 0.717109 0.755683
340 1 0.222308 0.713488 0.7517
390 1 0.00134561 0.821027 0.870622
391 1 0.0358678 0.789377 0.757895
315 1 0.0965006 0.785095 0.99003
386 1 0.0660858 0.752283 0.869833
393 1 0.0677851 0.824147 0.876043
395 1 0.0952817 0.784311 0.739238
397 1 0.128348 0.821768 0.871777
388 1 0.192021 0.753065 0.883137
399 1 0.160108 0.785543 0.755387
401 1 0.190197 0.8227 0.89043
403 1 0.22198 0.789076 0.75497
394 1 0.0369523 0.858375 0.758975
441 3 0.00652383 0.892778 0.875
398 1 0.0990885 0.857678 0.753652
442 3 0.0680704 0.892778 0.875
443 3 0.129617 0.892778 0.875
402 1 0.158217 0.857473 0.754385
444 3 0.191164 0.892778 0.875
404 1 0.221605 0.857902 0.751899
446 3 0.00652383 0.964192 0.875
447 3 0.0372971 0.928485 0.75
450 3 0.0372971 0.999899 0.75
449 3 0.0680704 0.964192 0.875
451 3 0.0988438 0.928485 0.75
454 3 0.0988438 0.999899 0.75
453 3 0.129617 0.964192 0.875
455 3 0.16039 0.928485 0.75
457 3 0.191164 0.964192 0.875
458 3 0.16039 0.999899 0.75
460 3 0.221937 0.999899 0.75
459 3 0.221937 0.928485 0.75
465 2 0.283484 0.000100995 0.25
469 2 0.25271 0.0358081 0.125
470 2 0.283484 0.000100995 0
472 2 0.283484 0.0715151 0
503 2 0.283484 0.0715151 0.25
466 2 0.34503 0.000100995 0.25
471 2 0.314257 0.0358081 0.125
473 2 0.34503 0.000100995 0
475 2 0.34503 0.0715151 0
507 2 0.34503 0.0715151 0.25
474 2 0.375804 0.0358081 0.125
467 2 0.406577 0.000100995 0.25
476 2 0.406577 0.000100995 0
477 2 0.43735 0.0358081 0.125
478 2 0.406577 0.0715151 0
511 2 0.406577 0.0715151 0.25
468 2 0.468123 0.000100995 0.25
479 2 0.468123 0.000100995 0
480 2 0.468123 0.0715151 0
515 2 0.468123 0.0715151 0.25
845 2 0.498897 0.0358081 0.125
501 2 0.25271 0.107222 0.125
506 1 0.280235 0.142535 0.247633
518 1 0.282284 0.144628 0.0026259
504 2 0.314257 0.107222 0.125
510 1 0.343738 0.14457 0.242757
521 1 0.345933 0.143081 0.00155136
508 2 0.375804 0.107222 0.125
512 2 0.43735 0.107222 0.125
514 1 0.405723 0.142695 0.243826
516 1 0.467279 0.141559 0.260608
527 1 0.468178 0.141634 0.00961994
880 2 0.498897 0.107222 0.125
517 1 0.251312 0.181714 0.124794
567 1 0.282003 0.215473 0.238216
519 1 0.312746 0.18119 0.117725
571 1 0.342755 0.216934 0.245232
522 1 0.37686 0.17781 0.122001
572 1 0.373996 0.247343 0.122654
525 1 0.439162 0.179011 0.137372
526 1 0.408624 0.215778 0.00715416
575 1 0.407422 0.209089 0.252905
528 1 0.468594 0.215228 0.00744225
579 1 0.467146 0.218037 0.254158
898 1 0.498596 0.175748 0.130723
565 1 0.254444 0.258534 0.125584
570 1 0.286708 0.29392 0.249088
581 1 0.254124 0.326759 0.128373
568 1 0.311607 0.251009 0.119749
574 1 0.34434 0.284933 0.2387
583 1 0.31876 0.329097 0.135987
586 1 0.375816 0.315796 0.124715
576 1 0.440792 0.253028 0.104274
578 1 0.405092 0.27783 0.245754
584 1 0.28555 0.357769 0.0156156
629 1 0.253775 0.396299 0.130115
631 1 0.286355 0.36553 0.270552
632 1 0.317632 0.396092 0.150752
587 1 0.351197 0.362893 0.0287404
635 1 0.352527 0.365099 0.276902
634 1 0.285424 0.43281 0.266316
645 1 0.251273 0.464866 0.128857
646 1 0.285596 0.426573 0.0174891
647 1 0.315 0.465567 0.144513
649 1 0.346271 0.432155 0.020308
638 1 0.352089 0.437999 0.279694
485 2 0.25271 0.0358081 0.375
486 2 0.25271 0.0358081 0.625
487 2 0.283484 0.000100995 0.5
490 2 0.283484 0.0715151 0.5
488 2 0.314257 0.0358081 0.375
489 2 0.314257 0.0358081 0.625
491 2 0.34503 0.000100995 0.5
494 2 0.34503 0.0715151 0.5
492 2 0.375804 0.0358081 0.375
493 2 0.375804 0.0358081 0.625
495 2 0.406577 0.000100995 0.5
496 2 0.43735 0.0358081 0.375
497 2 0.43735 0.0358081 0.625
498 2 0.406577 0.0715151 0.5
499 2 0.468123 0.000100995 0.5
500 2 0.468123 0.0715151 0.5
862 2 0.498897 0.0358081 0.375
863 2 0.498897 0.0358081 0.625
502 2 0.25271 0.107222 0.375
533 2 0.25271 0.107222 0.625
551 1 0.283082 0.139674 0.4939
505 2 0.314257 0.107222 0.375
536 2 0.314257 0.107222 0.625
555 1 0.34532 0.142874 0.487412
509 2 0.375804 0.107222 0.375
540 2 0.375804 0.107222 0.625
513 2 0.43735 0.107222 0.375
544 2 0.43735 0.107222 0.625
559 1 0.406674 0.143455 0.503232
563 1 0.4684 0.140908 0.504643
881 2 0.498897 0.107222 0.375
916 2 0.498897 0.107222 0.625
550 1 0.252174 0.17669 0.628369
554 1 0.283114 0.212802 0.491631
597 1 0.255032 0.247985 0.616021
549 1 0.252451 0.178867 0.37439
552 1 0.311062 0.177439 0.358703
553 1 0.314017 0.178805 0.626465
558 1 0.343957 0.210761 0.484492
569 1 0.312587 0.249942 0.373135
600 1 0.315247 0.249094 0.609358
556 1 0.374796 0.175914 0.369457
557 1 0.373891 0.178878 0.616538
573 1 0.375348 0.245034 0.372189
604 1 0.376171 0.247975 0.627252
560 1 0.437725 0.179568 0.395956
561 1 0.438716 0.178933 0.634215
562 1 0.405691 0.210609 0.508465
577 1 0.436719 0.249687 0.371415
564 1 0.469232 0.217779 0.495347
935 1 0.49948 0.178421 0.623228
934 1 0.499264 0.179387 0.373335
566 1 0.252839 0.253559 0.373514
613 1 0.253523 0.327254 0.373257
615 1 0.284111 0.287303 0.495413
614 1 0.255669 0.32041 0.627893
616 1 0.319093 0.328058 0.3822
617 1 0.318717 0.326812 0.635092
619 1 0.345677 0.282819 0.4998
620 1 0.375835 0.313371 0.371618
621 1 0.376227 0.321609 0.624056
608 1 0.438605 0.251572 0.611867
623 1 0.405985 0.282533 0.496417
618 1 0.284672 0.358816 0.517166
630 1 0.251824 0.399835 0.371782
653 1 0.253865 0.39582 0.632477
633 1 0.318464 0.398029 0.407796
644 1 0.314131 0.396874 0.643089
622 1 0.352232 0.36661 0.517781
636 1 0.284017 0.431895 0.517087
639 1 0.252012 0.469388 0.377762
637 1 0.253641 0.467115 0.6358
625 1 0.348636 0.437481 0.527312
627 1 0.313869 0.466113 0.640092
628 1 0.31529 0.469572 0.402463
481 2 0.283484 0.000100995 0.75
529 2 0.25271 0.0358081 0.875
535 2 0.283484 0.0715151 0.75
482 2 0.34503 0.000100995 0.75
530 2 0.314257 0.0358081 0.875
539 2 0.34503 0.0715151 0.75
531 2 0.375804 0.0358081 0.875
483 2 0.406577 0.000100995 0.75
532 2 0.43735 0.0358081 0.875
543 2 0.406577 0.0715151 0.75
484 2 0.468123 0.000100995 0.75
547 2 0.468123 0.0715151 0.75
911 2 0.498897 0.0358081 0.875
534 2 0.25271 0.107222 0.875
538 1 0.282683 0.140313 0.746565
537 2 0.314257 0.107222 0.875
542 1 0.345585 0.142077 0.752451
541 2 0.375804 0.107222 0.875
524 1 0.407225 0.144192 0.995902
545 2 0.43735 0.107222 0.875
546 1 0.406558 0.144709 0.750854
917 2 0.498897 0.107222 0.875
548 1 0.468141 0.142985 0.755567
520 1 0.284914 0.214984 0.990768
593 1 0.253512 0.177741 0.876302
599 1 0.283589 0.212734 0.749158
598 1 0.25465 0.247254 0.870978
523 1 0.343044 0.213228 0.995109
594 1 0.313045 0.177337 0.867445
603 1 0.34448 0.213128 0.7494
601 1 0.313645 0.248244 0.856877
595 1 0.375747 0.177096 0.870972
605 1 0.374006 0.245955 0.880844
596 1 0.439105 0.179752 0.879878
607 1 0.407197 0.217159 0.761187
983 1 0.499099 0.175456 0.887001
611 1 0.471904 0.215024 0.756732
582 1 0.286888 0.289913 0.989578
656 1 0.255057 0.319715 0.88579
602 1 0.284735 0.284555 0.745671
585 1 0.342706 0.282014 0.996303
655 1 0.317512 0.321594 0.881501
606 1 0.343975 0.283849 0.745314
654 1 0.374625 0.315252 0.880075
588 1 0.408077 0.282394 0.993019
609 1 0.440612 0.250684 0.853792
610 1 0.408694 0.286234 0.745316
650 1 0.285866 0.356145 0.756307
652 1 0.254814 0.391009 0.888878
643 1 0.31426 0.391082 0.885184
641 1 0.349576 0.361883 0.767097
642 1 0.283951 0.429492 0.764471
648 1 0.28231 0.494572 0.996398
591 1 0.251735 0.461789 0.881069
640 1 0.346276 0.427053 0.768938
590 1 0.314528 0.464788 0.882483
580 1 0.348682 0.496045 0.750586
661 1 0.283212 0.573381 0.244129
612 1 0.283154 0.502308 0.242831
657 1 0.252298 0.534745 0.118149
659 1 0.315141 0.535281 0.118075
664 1 0.343925 0.574384 0.238438
592 1 0.344459 0.503388 0.257052
651 1 0.345441 0.500255 0.00557849
672 1 0.281617 0.637835 0.0145404
711 1 0.283537 0.645315 0.261483
669 1 0.250606 0.605165 0.152868
671 1 0.314068 0.611665 0.129332
675 1 0.343871 0.645142 0.0029802
715 1 0.347729 0.641851 0.256734
709 1 0.252517 0.677663 0.128369
714 1 0.282996 0.716415 0.253814
725 1 0.251318 0.747951 0.129013
726 1 0.283352 0.712971 0.00114087
712 1 0.315439 0.680315 0.140787
718 1 0.345708 0.717254 0.248182
729 1 0.341662 0.718774 0.00937283
716 1 0.374815 0.684008 0.110383
722 1 0.407046 0.718008 0.23627
733 1 0.440728 0.745821 0.134124
775 1 0.28152 0.78694 0.250012
773 1 0.252055 0.822694 0.13389
727 1 0.312985 0.754769 0.122819
776 1 0.311609 0.824167 0.128418
779 1 0.345947 0.790062 0.243088
730 1 0.376158 0.752574 0.10548
780 1 0.377773 0.823731 0.118172
734 1 0.410156 0.783175 0.0064532
783 1 0.40616 0.785879 0.244053
784 1 0.437809 0.822689 0.129807
736 1 0.466811 0.78867 0.0170727
787 1 0.471673 0.786626 0.25657
778 1 0.282991 0.859086 0.26195
789 3 0.25271 0.892778 0.125
790 1 0.281867 0.859208 0.0129113
782 1 0.345963 0.856964 0.24175
791 3 0.314257 0.892778 0.125
794 3 0.375804 0.892778 0.125
786 1 0.407593 0.858476 0.241881
797 3 0.43735 0.892778 0.125
788 1 0.468182 0.854813 0.253835
799 1 0.467343 0.856493 0.00283393
1198 3 0.498897 0.892778 0.125
720 3 0.283484 0.999899 0
756 3 0.283484 0.999899 0.25
792 3 0.283484 0.928485 0
837 3 0.25271 0.964192 0.125
839 3 0.283484 0.928485 0.25
719 3 0.34503 0.999899 0
751 3 0.34503 0.999899 0.25
755 3 0.34503 0.928485 0.25
795 3 0.34503 0.928485 0
840 3 0.314257 0.964192 0.125
753 3 0.375804 0.964192 0.125
708 3 0.406577 0.999899 0
724 3 0.406577 0.999899 0.25
739 3 0.43735 0.964192 0.125
740 3 0.406577 0.928485 0.25
798 3 0.406577 0.928485 0
707 3 0.468123 0.999899 0
721 3 0.468123 0.999899 0.25
723 3 0.468123 0.928485 0.25
800 3 0.468123 0.928485 0
1147 3 0.498897 0.964192 0.125
658 1 0.25216 0.539401 0.368063
695 1 0.283714 0.573864 0.506011
626 1 0.281848 0.501762 0.50215
681 1 0.252634 0.538583 0.617171
660 1 0.313451 0.539873 0.375689
683 1 0.315165 0.536749 0.607793
699 1 0.346426 0.576824 0.490927
624 1 0.349193 0.507519 0.505705
693 1 0.251959 0.609338 0.385412
694 1 0.252143 0.607308 0.624033
698 1 0.281879 0.644369 0.511496
696 1 0.314034 0.610697 0.381867
697 1 0.314676 0.608482 0.628747
702 1 0.34559 0.644292 0.497742
710 1 0.252104 0.678623 0.373325
741 1 0.251243 0.677836 0.617676
759 1 0.282554 0.714092 0.503221
713 1 0.314628 0.680583 0.382155
744 1 0.313048 0.675653 0.636885
761 1 0.31198 0.749403 0.621124
763 1 0.345023 0.715257 0.507512
717 1 0.376541 0.6787 0.369378
748 1 0.374243 0.677288 0.619098
765 1 0.374881 0.747138 0.632363
767 1 0.40738 0.715574 0.494497
769 1 0.43744 0.746021 0.632772
757 1 0.250455 0.750264 0.382308
758 1 0.250622 0.750673 0.627272
762 1 0.282761 0.785025 0.497997
805 1 0.252466 0.823651 0.62956
774 1 0.250603 0.821342 0.390882
760 1 0.314757 0.752527 0.368214
766 1 0.344956 0.785385 0.495663
777 1 0.313105 0.823507 0.378833
808 1 0.313465 0.817349 0.626447
764 1 0.375883 0.751519 0.365868
781 1 0.37721 0.823039 0.366131
812 1 0.375717 0.815759 0.619325
768 1 0.435602 0.752251 0.38428
770 1 0.406996 0.787116 0.50355
785 1 0.437997 0.820177 0.371036
816 1 0.437822 0.819389 0.624807
772 1 0.468402 0.782085 0.513004
1216 1 0.499259 0.81765 0.633174
821 3 0.25271 0.892778 0.375
822 3 0.25271 0.892778 0.625
823 1 0.283255 0.856719 0.501421
824 3 0.314257 0.892778 0.375
825 3 0.314257 0.892778 0.625
827 1 0.344233 0.856815 0.489438
828 3 0.375804 0.892778 0.375
829 3 0.375804 0.892778 0.625
831 1 0.405189 0.856991 0.495479
832 3 0.43735 0.892778 0.375
833 3 0.43735 0.892778 0.625
835 1 0.469367 0.854908 0.503587
1234 3 0.498897 0.892778 0.375
1235 3 0.498897 0.892778 0.625
666 3 0.283484 0.999899 0.5
701 3 0.25271 0.964192 0.625
826 3 0.283484 0.928485 0.5
838 3 0.25271 0.964192 0.375
665 3 0.34503 0.999899 0.5
691 3 0.314257 0.964192 0.625
771 3 0.314257 0.964192 0.375
830 3 0.34503 0.928485 0.5
686 3 0.375804 0.964192 0.625
752 3 0.375804 0.964192 0.375
663 3 0.406577 0.999899 0.5
677 3 0.43735 0.964192 0.625
735 3 0.43735 0.964192 0.375
834 3 0.406577 0.928485 0.5
662 3 0.468123 0.999899 0.5
836 3 0.468123 0.928485 0.5
1082 3 0.498897 0.964192 0.625
1146 3 0.498897 0.964192 0.375
670 1 0.28443 0.565776 0.999209
682 1 0.252013 0.532146 0.879723
685 1 0.284947 0.570758 0.75404
589 1 0.284175 0.502914 0.748266
673 1 0.345109 0.573464 0.998055
684 1 0.315156 0.534774 0.858878
688 1 0.345433 0.568612 0.740407
737 1 0.251127 0.602451 0.893075
743 1 0.28052 0.640983 0.7645
738 1 0.313202 0.604674 0.877867
747 1 0.34633 0.639522 0.75226
746 1 0.281754 0.713893 0.749175
742 1 0.252624 0.678414 0.883332
745 1 0.31241 0.675598 0.887978
750 1 0.342585 0.712542 0.756866
802 1 0.311117 0.746919 0.875972
749 1 0.373404 0.67997 0.871423
803 1 0.373897 0.747963 0.879204
732 1 0.405838 0.712491 0.987061
754 1 0.406392 0.710303 0.742682
804 1 0.441365 0.742329 0.881767
728 1 0.280353 0.785242 0.998138
806 1 0.253159 0.822474 0.874207
807 1 0.281752 0.784332 0.755035
801 1 0.250358 0.750022 0.87541
731 1 0.343907 0.787031 0.994427
809 1 0.311334 0.818633 0.872533
811 1 0.34201 0.782571 0.749374
813 1 0.375441 0.817447 0.865437
815 1 0.406082 0.778754 0.75428
817 1 0.437093 0.819299 0.872048
819 1 0.468092 0.785485 0.759957
1217 1 0.499232 0.819177 0.883143
706 3 0.25271 0.892778 0.875
810 1 0.28292 0.856304 0.749784
793 1 0.343522 0.855722 0.991764
705 3 0.314257 0.892778 0.875
814 1 0.344337 0.855101 0.742856
704 3 0.375804 0.892778 0.875
796 1 0.406762 0.856505 0.996753
703 3 0.43735 0.892778 0.875
818 1 0.406427 0.85497 0.745278
820 1 0.469528 0.854993 0.745563
1093 3 0.498897 0.892778 0.875
689 3 0.283484 0.999899 0.75
692 3 0.283484 0.928485 0.75
700 3 0.25271 0.964192 0.875
690 3 0.314257 0.964192 0.875
687 3 0.34503 0.928485 0.75
679 3 0.34503 0.999899 0.75
680 3 0.375804 0.964192 0.875
678 3 0.406577 0.928485 0.75
676 3 0.43735 0.964192 0.875
674 3 0.406577 0.999899 0.75
668 3 0.468123 0.928485 0.75
667 3 0.468123 0.999899 0.75
1081 3 0.498897 0.964192 0.875
841 2 0.52967 0.000100995 0.25
846 2 0.52967 0.000100995 0
848 2 0.52967 0.0715151 0
882 2 0.52967 0.0715151 0.25
842 2 0.591217 0.000100995 0.25
847 2 0.560443 0.0358081 0.125
849 2 0.591217 0.000100995 0
851 2 0.591217 0.0715151 0
886 2 0.591217 0.0715151 0.25
850 2 0.62199 0.0358081 0.125
843 2 0.652763 0.000100995 0.25
852 2 0.652763 0.000100995 0
853 2 0.683537 0.0358081 0.125
854 2 0.652763 0.0715151 0
890 2 0.652763 0.0715151 0.25
844 2 0.71431 0.000100995 0.25
855 2 0.71431 0.000100995 0
856 2 0.745083 0.0358081 0.125
857 2 0.71431 0.0715151 0
894 2 0.71431 0.0715151 0.25
885 1 0.531036 0.142223 0.251549
899 1 0.529967 0.13976 0.00235858
883 2 0.560443 0.107222 0.125
889 1 0.592193 0.141539 0.244547
887 2 0.62199 0.107222 0.125
891 2 0.683537 0.107222 0.125
893 1 0.652523 0.142608 0.243057
895 2 0.745083 0.107222 0.125
897 1 0.713933 0.142925 0.254778
908 1 0.716314 0.140638 0.00842505
901 1 0.531196 0.210464 0.00318262
954 1 0.533057 0.212169 0.259102
952 1 0.502095 0.24397 0.138473
900 1 0.562545 0.175151 0.116805
958 1 0.591904 0.217326 0.242665
903 1 0.623222 0.179592 0.113046
959 1 0.622425 0.248393 0.111315
906 1 0.684713 0.177464 0.130492
962 1 0.654794 0.212535 0.246324
909 1 0.744584 0.180027 0.132114
966 1 0.713161 0.214685 0.24672
967 1 0.744058 0.248732 0.112684
955 1 0.560142 0.254617 0.116811
961 1 0.595661 0.291731 0.239119
975 1 0.622015 0.323937 0.0894624
963 1 0.68282 0.250784 0.117913
965 1 0.650919 0.282903 0.235359
978 1 0.683434 0.323354 0.141679
969 1 0.714439 0.28751 0.243137
981 1 0.745538 0.321486 0.129326
1034 1 0.651718 0.361852 0.240212
1035 1 0.684623 0.394644 0.127806
982 1 0.714104 0.355495 0.0106016
1038 1 0.715901 0.360815 0.262262
1039 1 0.744872 0.391202 0.130214
1046 1 0.649565 0.495234 0.000200442
1048 1 0.650833 0.426669 0.0297615
1047 1 0.681629 0.461045 0.126374
976 1 0.651945 0.498659 0.251975
1037 1 0.65257 0.427653 0.27682
1041 1 0.71518 0.431168 0.250555
1044 1 0.744021 0.461389 0.121544
973 1 0.710763 0.499349 0.250353
864 2 0.52967 0.000100995 0.5
867 2 0.52967 0.0715151 0.5
865 2 0.560443 0.0358081 0.375
866 2 0.560443 0.0358081 0.625
868 2 0.591217 0.000100995 0.5
871 2 0.591217 0.0715151 0.5
869 2 0.62199 0.0358081 0.375