ITEM: TIMESTEP
0
ITEM: NUMBER OF ATOMS
1488
ITEM: BOX BOUNDS ss ss pp
-3.7046516603897467e-01 5.6671009714548475e+01
-3.5200000000000006e-03 3.4849742176873065e+01
0.0000000000000000e+00 9.9560630400000001e+00
ITEM: ATOMS id type xs ys zs
1 2 0.0373494 0.000100995 0.25
5 2 0.00649466 0.0358081 0.125
6 2 0.0373494 0.000100995 0
8 2 0.0373494 0.0715151 0
39 2 0.0373494 0.0715151 0.25
2 2 0.0990589 0.000100995 0.25
7 2 0.0682041 0.0358081 0.125
9 2 0.0990589 0.000100995 0
11 2 0.0990589 0.0715151 0
43 2 0.0990589 0.0715151 0.25
10 2 0.129914 0.0358081 0.125
3 2 0.160768 0.000100995 0.25
12 2 0.160768 0.000100995 0
13 2 0.191623 0.0358081 0.125
14 2 0.160768 0.0715151 0
47 2 0.160768 0.0715151 0.25
4 2 0.222478 0.000100995 0.25
15 2 0.222478 0.000100995 0
16 2 0.222478 0.0715151 0
51 2 0.222478 0.0715151 0.25
37 2 0.00649466 0.107222 0.125
42 1 0.0369124 0.140384 0.252689
54 1 0.0367049 0.141291 0.00755471
40 2 0.0682041 0.107222 0.125
46 1 0.100464 0.143214 0.249477
44 2 0.129914 0.107222 0.125
48 2 0.191623 0.107222 0.125
50 1 0.160268 0.141736 0.258115
52 1 0.222418 0.143135 0.256948
63 1 0.223065 0.144038 0.00103815
53 1 0.00330547 0.17453 0.142076
56 1 0.0356278 0.209663 0.00382224
103 1 0.0366948 0.208733 0.255133
101 1 0.00738913 0.246288 0.125685
55 1 0.0688514 0.175722 0.128617
59 1 0.097107 0.210772 0.00274214
107 1 0.0994888 0.211374 0.257694
104 1 0.0648368 0.245403 0.113269
58 1 0.130497 0.175717 0.133915
108 1 0.129335 0.246329 0.118061
61 1 0.192552 0.17901 0.12613
62 1 0.161559 0.213347 0.00646328
111 1 0.162435 0.210365 0.258541
115 1 0.223461 0.217542 0.254532
106 1 0.0385925 0.284088 0.242742
117 1 0.004564 0.316227 0.124702
110 1 0.0964891 0.280178 0.222686
119 1 0.0668901 0.322477 0.115232
122 1 0.126281 0.314873 0.117027
112 1 0.19244 0.250226 0.122606
114 1 0.160358 0.280325 0.243916
125 1 0.189854 0.319112 0.123016
116 1 0.222244 0.288703 0.241936
120 1 0.0360108 0.359364 0.00360335
165 1 0.0062287 0.397676 0.121015
167 1 0.0366705 0.354577 0.243155
168 1 0.0654567 0.393086 0.123058
171 1 0.0989658 0.357102 0.234154
172 1 0.130035 0.389414 0.123648
175 1 0.159001 0.351393 0.249201
176 1 0.188784 0.388664 0.12755
179 1 0.22171 0.358923 0.253172
170 1 0.0386818 0.427489 0.250041
181 1 0.00741037 0.467407 0.123676
174 1 0.0983255 0.430411 0.250979
183 1 0.0659465 0.470975 0.129301
185 1 0.0974156 0.428764 0.0144155
186 1 0.129515 0.461142 0.125359
178 1 0.160405 0.422254 0.263751
189 1 0.191059 0.460531 0.124976
231 1 0.159476 0.496336 0.244641
180 1 0.222689 0.4278 0.255156
191 1 0.220844 0.429771 0.00647086
232 1 0.223338 0.497108 0.2497
21 2 0.00649466 0.0358081 0.375
22 2 0.00649466 0.0358081 0.625
23 2 0.0373494 0.000100995 0.5
26 2 0.0373494 0.0715151 0.5
24 2 0.0682041 0.0358081 0.375
25 2 0.0682041 0.0358081 0.625
27 2 0.0990589 0.000100995 0.5
30 2 0.0990589 0.0715151 0.5
28 2 0.129914 0.0358081 0.375
29 2 0.129914 0.0358081 0.625
31 2 0.160768 0.000100995 0.5
32 2 0.191623 0.0358081 0.375
33 2 0.191623 0.0358081 0.625
34 2 0.160768 0.0715151 0.5
35 2 0.222478 0.000100995 0.5
36 2 0.222478 0.0715151 0.5
38 2 0.00649466 0.107222 0.375
69 2 0.00649466 0.107222 0.625
87 1 0.0371628 0.140046 0.506002
41 2 0.0682041 0.107222 0.375
72 2 0.0682041 0.107222 0.625
91 1 0.0983489 0.140745 0.498247
45 2 0.129914 0.107222 0.375
76 2 0.129914 0.107222 0.625
49 2 0.191623 0.107222 0.375
80 2 0.191623 0.107222 0.625
95 1 0.162425 0.144714 0.507407
99 1 0.222365 0.142187 0.50646
85 1 0.00352255 0.180425 0.389959
86 1 0.00802891 0.175796 0.648491
90 1 0.0368156 0.210706 0.492303
102 1 0.00966817 0.247736 0.366937
88 1 0.0673576 0.174028 0.381683
89 1 0.0676189 0.174364 0.626913
94 1 0.0993124 0.207309 0.501955
105 1 0.0672826 0.245897 0.355666
136 1 0.0670342 0.243333 0.610736
92 1 0.130996 0.174793 0.384229
93 1 0.131571 0.178011 0.631267
109 1 0.130677 0.243574 0.378251
140 1 0.129426 0.245253 0.62759
96 1 0.194695 0.178921 0.380379
97 1 0.194973 0.180029 0.637542
98 1 0.161709 0.215172 0.518154
100 1 0.224518 0.214155 0.503311
133 1 0.00841684 0.250346 0.620092
149 1 0.00503095 0.318885 0.37751
150 1 0.00976161 0.318924 0.615823
151 1 0.0382879 0.284075 0.487093
152 1 0.0698301 0.318122 0.354178
153 1 0.0685493 0.315876 0.611936
155 1 0.0974638 0.276092 0.475063
156 1 0.128563 0.316137 0.36034
157 1 0.127504 0.31401 0.619657
113 1 0.192028 0.252727 0.376058
144 1 0.194306 0.250336 0.615755
159 1 0.160393 0.285182 0.495237
160 1 0.191499 0.322348 0.376208
161 1 0.194228 0.320536 0.622276
163 1 0.224339 0.290559 0.495283
154 1 0.0401372 0.352805 0.486329
166 1 0.00830248 0.387146 0.381776
197 1 0.00797412 0.389179 0.621997
158 1 0.0985293 0.353202 0.485722
169 1 0.068795 0.390632 0.360833
200 1 0.069498 0.387144 0.615451
173 1 0.128227 0.392244 0.375979
204 1 0.128014 0.391548 0.622318
162 1 0.159165 0.356492 0.498179
177 1 0.1908 0.394058 0.384655
208 1 0.188782 0.391016 0.630957
164 1 0.222402 0.364816 0.513857
213 1 0.00873513 0.459439 0.360484
214 1 0.00122036 0.460504 0.617397
215 1 0.0397641 0.423734 0.504655
218 1 0.0345669 0.497774 0.507343
222 1 0.0989529 0.497919 0.484466
216 1 0.0672297 0.464654 0.388505
217 1 0.0681006 0.463849 0.631998
219 1 0.0986051 0.427463 0.502084
220 1 0.131173 0.463552 0.375247
221 1 0.128498 0.463013 0.614342
223 1 0.159879 0.429855 0.511601
224 1 0.190692 0.463145 0.383604
225 1 0.189543 0.467615 0.634157
227 1 0.221207 0.434221 0.508891
17 2 0.0373494 0.000100995 0.75
65 2 0.00649466 0.0358081 0.875
71 2 0.0373494 0.0715151 0.75
18 2 0.0990589 0.000100995 0.75
66 2 0.0682041 0.0358081 0.875
75 2 0.0990589 0.0715151 0.75
67 2 0.129914 0.0358081 0.875
19 2 0.160768 0.000100995 0.75
68 2 0.191623 0.0358081 0.875
79 2 0.160768 0.0715151 0.75
20 2 0.222478 0.000100995 0.75
83 2 0.222478 0.0715151 0.75
70 2 0.00649466 0.107222 0.875
74 1 0.0376465 0.140758 0.763148
73 2 0.0682041 0.107222 0.875
78 1 0.0995069 0.142933 0.748475
57 1 0.101117 0.142494 0.992554
77 2 0.129914 0.107222 0.875
60 1 0.160753 0.145091 0.991587
81 2 0.191623 0.107222 0.875
82 1 0.162347 0.144254 0.753623
84 1 0.221217 0.139748 0.759079
129 1 0.00536243 0.175376 0.893228
135 1 0.0358862 0.214722 0.752799
130 1 0.0667574 0.176902 0.879044
139 1 0.097997 0.210409 0.748949
137 1 0.0661734 0.247599 0.865946
131 1 0.131217 0.179488 0.883746
141 1 0.125598 0.246972 0.877895
132 1 0.192114 0.179583 0.883986
143 1 0.162751 0.215046 0.761826
64 1 0.222623 0.216901 0.999321
147 1 0.225021 0.215281 0.753095
118 1 0.0348618 0.28376 0.990011
134 1 0.00367982 0.254371 0.861524
138 1 0.0383718 0.285557 0.743516
193 1 0.00557459 0.326526 0.86744
121 1 0.0931857 0.284463 0.985994
142 1 0.0969337 0.280376 0.735209
194 1 0.065648 0.321959 0.864642
195 1 0.124932 0.31603 0.864429
124 1 0.158692 0.282683 0.988518
145 1 0.193613 0.251163 0.866589
146 1 0.161024 0.283935 0.742758
196 1 0.191053 0.31967 0.864225
127 1 0.220971 0.288771 0.998231
148 1 0.225583 0.287239 0.748268
198 1 0.00757066 0.396911 0.874611
199 1 0.0374955 0.35896 0.746918
123 1 0.0966885 0.3547 0.995295
201 1 0.0667853 0.39586 0.875997
203 1 0.0959001 0.354933 0.741717
205 1 0.127557 0.386979 0.870367
126 1 0.158054 0.350884 0.998101
207 1 0.156786 0.352477 0.741089
209 1 0.188916 0.38787 0.875074
128 1 0.221215 0.358338 0.998174
211 1 0.222065 0.357459 0.751596
182 1 0.0364957 0.433331 0.999173
233 1 0.00155488 0.467806 0.862941
202 1 0.0355968 0.431258 0.745532
234 1 0.0677936 0.465862 0.87485
206 1 0.0983893 0.426024 0.751735
238 1 0.0996363 0.498288 0.74471
235 1 0.127992 0.462777 0.87354
190 1 0.159864 0.495459 0.997107
188 1 0.158513 0.422927 0.998489
239 1 0.158752 0.49868 0.749368
210 1 0.159433 0.424741 0.748597
236 1 0.190672 0.463024 0.872118
212 1 0.219949 0.425636 0.754574
241 1 0.00306934 0.539005 0.14007
245 1 0.0376263 0.572017 0.26018
254 1 0.0333468 0.571458 0.00417715
229 1 0.0356705 0.502938 0.253127
243 1 0.0656589 0.537405 0.111242
230 1 0.0992119 0.501653 0.244387
248 1 0.101282 0.570867 0.233445
246 1 0.129985 0.532118 0.104762
249 1 0.191075 0.532916 0.119926
251 1 0.159198 0.573666 0.230754
252 1 0.222762 0.56776 0.251132
263 1 0.220689 0.571822 0.00193872
253 1 0.00203741 0.607599 0.124882
256 1 0.0347675 0.639628 0.00403429
295 1 0.0361966 0.640204 0.245021
255 1 0.0687631 0.607043 0.126868
299 1 0.100112 0.642631 0.258409
258 1 0.129711 0.607125 0.112421
261 1 0.189732 0.607803 0.121673
303 1 0.158372 0.645769 0.2403
264 1 0.219696 0.644858 0.0168993
307 1 0.221949 0.642381 0.264232
293 1 0.00368458 0.674732 0.123798
298 1 0.036951 0.710852 0.247626
309 1 0.00791809 0.748102 0.116628
310 1 0.038041 0.708317 0.000392014
296 1 0.0669365 0.6767 0.122116
302 1 0.0964265 0.714584 0.23952
300 1 0.127745 0.681612 0.116675
314 1 0.126358 0.749658 0.119345
304 1 0.18952 0.678729 0.134761
306 1 0.157534 0.717853 0.25744
316 1 0.161167 0.714612 0.00393449
308 1 0.219567 0.715453 0.260446
319 1 0.219345 0.718384 0.0156751
312 1 0.036484 0.789625 0.00187402
357 1 0.00336705 0.821528 0.119683
359 1 0.0375574 0.787926 0.244714
311 1 0.0663286 0.750372 0.107039
360 1 0.0675608 0.8246 0.126213
363 1 0.0961113 0.784508 0.241559
364 1 0.127562 0.820557 0.124256
317 1 0.189679 0.755517 0.132878
318 1 0.15864 0.786117 0.00395428
367 1 0.15878 0.787644 0.250539
368 1 0.190665 0.823156 0.130502
320 1 0.223141 0.787887 0.0068351
371 1 0.219826 0.787818 0.258128
362 1 0.0369525 0.860259 0.242525
373 3 0.00649466 0.892778 0.125
374 1 0.0361199 0.856559 0.0026701
366 1 0.0985762 0.857011 0.257287
375 3 0.0682041 0.892778 0.125
377 1 0.0985183 0.858192 0.00734727
378 3 0.129914 0.892778 0.125
370 1 0.159852 0.856588 0.253807
380 1 0.160313 0.856702 0.00524342
381 3 0.191623 0.892778 0.125
372 1 0.221836 0.857777 0.254756
383 1 0.22195 0.85951 0.00514185
376 3 0.0373494 0.928485 0
421 3 0.00649466 0.964192 0.125
423 3 0.0373494 0.928485 0.25
426 3 0.0373494 0.999899 0.25
437 3 0.0373494 0.999899 0
379 3 0.0990589 0.928485 0
424 3 0.0682041 0.964192 0.125
427 3 0.0990589 0.928485 0.25
430 3 0.0990589 0.999899 0.25
438 3 0.0990589 0.999899 0
428 3 0.129914 0.964192 0.125
382 3 0.160768 0.928485 0
431 3 0.160768 0.928485 0.25
432 3 0.191623 0.964192 0.125
434 3 0.160768 0.999899 0.25
439 3 0.160768 0.999899 0
384 3 0.222478 0.928485 0
435 3 0.222478 0.928485 0.25
436 3 0.222478 0.999899 0.25
440 3 0.222478 0.999899 0
242 1 0.00326085 0.530207 0.39007
265 1 0.00690688 0.538277 0.617864
279 1 0.0372276 0.573446 0.501481
244 1 0.069014 0.537461 0.369133
267 1 0.0685813 0.534629 0.621051
283 1 0.100192 0.571515 0.486808
247 1 0.130555 0.535071 0.36275
270 1 0.131853 0.537325 0.612515
250 1 0.189331 0.534087 0.370722
273 1 0.190568 0.537749 0.619503
287 1 0.160979 0.575446 0.499813
226 1 0.159147 0.50195 0.500122
228 1 0.223138 0.503637 0.494812
291 1 0.222297 0.575784 0.501315
277 1 0.00566745 0.603263 0.383569
278 1 0.0017818 0.612241 0.620324
282 1 0.0370412 0.645316 0.501034
280 1 0.0690463 0.607951 0.375144
281 1 0.0693287 0.607695 0.62308
286 1 0.0993881 0.646454 0.499674
284 1 0.13148 0.608176 0.38301
285 1 0.128598 0.608184 0.622609
288 1 0.190573 0.608598 0.366035
289 1 0.19289 0.611792 0.61767
290 1 0.160266 0.64533 0.510011
292 1 0.22475 0.644154 0.496931
294 1 0.00597933 0.674889 0.371002
325 1 0.00471923 0.683047 0.627862
341 1 0.0084098 0.749448 0.376608
343 1 0.0378041 0.713102 0.484331
297 1 0.0684204 0.678049 0.378337
328 1 0.0668102 0.67731 0.622797
347 1 0.0962989 0.716685 0.496073
301 1 0.129255 0.682345 0.380923
332 1 0.128955 0.681103 0.636145
305 1 0.191247 0.680531 0.382501
336 1 0.19543 0.682118 0.625849
351 1 0.161721 0.713374 0.513681
355 1 0.222154 0.714133 0.498551
342 1 0.0049997 0.755168 0.635764
346 1 0.0356095 0.789058 0.495363
358 1 0.0045851 0.822636 0.379027
389 1 0.00639094 0.82393 0.625962
344 1 0.0665212 0.75037 0.365523
345 1 0.0642963 0.751786 0.616594
350 1 0.0970496 0.786521 0.484804
361 1 0.0666715 0.823035 0.380526
392 1 0.0667438 0.824965 0.625744
348 1 0.127831 0.75349 0.371926
349 1 0.129018 0.750396 0.627509
365 1 0.126982 0.823245 0.374285
396 1 0.128342 0.819555 0.627142
352 1 0.18923 0.751009 0.378229
353 1 0.192737 0.754297 0.631761
354 1 0.159593 0.785813 0.503455
369 1 0.189936 0.820595 0.387247
400 1 0.190053 0.823558 0.639024
356 1 0.221785 0.784658 0.506458
405 3 0.00649466 0.892778 0.375
406 3 0.00649466 0.892778 0.625
407 1 0.0359295 0.857431 0.503431
408 3 0.0682041 0.892778 0.375
409 3 0.0682041 0.892778 0.625
411 1 0.0985208 0.857332 0.503177
412 3 0.129914 0.892778 0.375
413 3 0.129914 0.892778 0.625
415 1 0.158485 0.857155 0.503534
416 3 0.191623 0.892778 0.375
417 3 0.191623 0.892778 0.625
419 1 0.222164 0.857419 0.499027
410 3 0.0373494 0.928485 0.5
422 3 0.00649466 0.964192 0.375
445 3 0.00649466 0.964192 0.625
461 3 0.0373494 0.999899 0.5
414 3 0.0990589 0.928485 0.5
425 3 0.0682041 0.964192 0.375
448 3 0.0682041 0.964192 0.625
462 3 0.0990589 0.999899 0.5
429 3 0.129914 0.964192 0.375
452 3 0.129914 0.964192 0.625
418 3 0.160768 0.928485 0.5
433 3 0.191623 0.964192 0.375
456 3 0.191623 0.964192 0.625
463 3 0.160768 0.999899 0.5
420 3 0.222478 0.928485 0.5
464 3 0.222478 0.999899 0.5
184 1 0.0343347 0.502976 0.98569
266 1 9.87352e-05 0.53642 0.87102
269 1 0.0352982 0.571759 0.750351
237 1 0.034516 0.500032 0.746236
257 1 0.0986433 0.569322 0.985075
268 1 0.0661369 0.535505 0.864481
272 1 0.0979765 0.569955 0.736961
187 1 0.097723 0.502294 0.995489
271 1 0.128345 0.535437 0.852964
260 1 0.159778 0.569959 0.983809
274 1 0.190233 0.534062 0.872663
275 1 0.159556 0.575242 0.745464
192 1 0.223823 0.50175 0.998803
276 1 0.221657 0.571998 0.74847
240 1 0.222123 0.501811 0.758089
321 1 0.00188749 0.609113 0.872125
327 1 0.0343746 0.641997 0.746524
259 1 0.0987402 0.642037 0.999351
322 1 0.0657018 0.606815 0.877639
331 1 0.0985582 0.645996 0.751238
323 1 0.128897 0.606453 0.864428
262 1 0.159797 0.643732 0.994795
324 1 0.191188 0.605056 0.868899
335 1 0.162582 0.64768 0.757084
339 1 0.222691 0.645167 0.755071
326 1 0.00395186 0.678916 0.869769
330 1 0.0369579 0.713955 0.740524
385 1 0.00897123 0.747869 0.881807
313 1 0.0951386 0.712906 0.992559
329 1 0.0665543 0.67563 0.867136
334 1 0.0957832 0.714948 0.751417
333 1 0.129058 0.678158 0.881523
387 1 0.129746 0.748484 0.877854
337 1 0.191958 0.679322 0.887275
338 1 0.164093 0.717049 0.755655
340 1 0.222804 0.716351 0.767328
390 1 0.0013791 0.820932 0.871209
391 1 0.0359003 0.789154 0.758532
315 1 0.0966929 0.784895 0.990903
386 1 0.0662141 0.75204 0.870445
393 1 0.0678874 0.824014 0.876584
395 1 0.0954467 0.784069 0.739976
397 1 0.128612 0.821666 0.872349
388 1 0.191189 0.756519 0.883263
399 1 0.160326 0.785439 0.755236
401 1 0.190758 0.823551 0.892013
403 1 0.224196 0.790715 0.761042
394 1 0.0369961 0.858273 0.759312
441 3 0.00649466 0.892778 0.875
398 1 0.0992938 0.85759 0.753986
442 3 0.0682041 0.892778 0.875
443 3 0.129914 0.892778 0.875
402 1 0.15854 0.857409 0.754811
444 3 0.191623 0.892778 0.875
404 1 0.222738 0.857417 0.750361
446 3 0.00649466 0.964192 0.875
447 3 0.0373494 0.928485 0.75
450 3 0.0373494 0.999899 0.75
449 3 0.0682041 0.964192 0.875
451 3 0.0990589 0.928485 0.75
454 3 0.0990589 0.999899 0.75
453 3 0.129914 0.964192 0.875
455 3 0.160768 0.928485 0.75
457 3 0.191623 0.964192 0.875
458 3 0.160768 0.999899 0.75
459 3 0.222478 0.928485 0.75
460 3 0.222478 0.999899 0.75
465 2 0.284187 0.000100995 0.25
469 2 0.253333 0.0358081 0.125
470 2 0.284187 0.000100995 0
472 2 0.284187 0.0715151 0
503 2 0.284187 0.0715151 0.25
466 2 0.345897 0.000100995 0.25
471 2 0.315042 0.0358081 0.125
473 2 0.345897 0.000100995 0
475 2 0.345897 0.0715151 0
507 2 0.345897 0.0715151 0.25
474 2 0.376752 0.0358081 0.125
467 2 0.407606 0.000100995 0.25
476 2 0.407606 0.000100995 0
477 2 0.438461 0.0358081 0.125
478 2 0.407606 0.0715151 0
511 2 0.407606 0.0715151 0.25
468 2 0.469316 0.000100995 0.25
479 2 0.469316 0.000100995 0
480 2 0.469316 0.0715151 0
515 2 0.469316 0.0715151 0.25
501 2 0.253333 0.107222 0.125
506 1 0.280875 0.142118 0.247674
518 1 0.283092 0.145044 0.00264294
504 2 0.315042 0.107222 0.125
510 1 0.344784 0.144919 0.241745
521 1 0.347391 0.143937 0.00181009
508 2 0.376752 0.107222 0.125
512 2 0.438461 0.107222 0.125
514 1 0.407122 0.146086 0.239893
516 1 0.473148 0.144982 0.253299
527 1 0.468694 0.141281 0.00436087
517 1 0.251935 0.181253 0.124928
567 1 0.282218 0.21503 0.236995
519 1 0.313373 0.181776 0.117647
571 1 0.342394 0.219293 0.244272
522 1 0.376923 0.182991 0.122164
565 1 0.252997 0.255406 0.120678
570 1 0.281455 0.289968 0.247148
581 1 0.252338 0.325858 0.12776
568 1 0.312749 0.25472 0.121673
583 1 0.317149 0.324138 0.11585
586 1 0.284308 0.362457 0.256543
588 1 0.252135 0.395274 0.125493
528 1 0.286383 0.49498 0.240353
580 1 0.25312 0.464075 0.1248
585 1 0.285174 0.429669 0.242214
485 2 0.253333 0.0358081 0.375
486 2 0.253333 0.0358081 0.625
487 2 0.284187 0.000100995 0.5
490 2 0.284187 0.0715151 0.5
488 2 0.315042 0.0358081 0.375
489 2 0.315042 0.0358081 0.625
491 2 0.345897 0.000100995 0.5
494 2 0.345897 0.0715151 0.5
492 2 0.376752 0.0358081 0.375
493 2 0.376752 0.0358081 0.625
495 2 0.407606 0.000100995 0.5
496 2 0.438461 0.0358081 0.375
497 2 0.438461 0.0358081 0.625
498 2 0.407606 0.0715151 0.5
499 2 0.469316 0.000100995 0.5
500 2 0.469316 0.0715151 0.5
502 2 0.253333 0.107222 0.375
533 2 0.253333 0.107222 0.625
551 1 0.283819 0.139895 0.494156
505 2 0.315042 0.107222 0.375
536 2 0.315042 0.107222 0.625
555 1 0.345676 0.141572 0.484917
509 2 0.376752 0.107222 0.375
540 2 0.376752 0.107222 0.625
513 2 0.438461 0.107222 0.375
544 2 0.438461 0.107222 0.625
559 1 0.40753 0.143112 0.49725
563 1 0.472719 0.145056 0.501006
550 1 0.252781 0.176709 0.629181
554 1 0.282245 0.212739 0.493215
597 1 0.254824 0.247812 0.618931
549 1 0.253027 0.178883 0.374376
552 1 0.311012 0.17737 0.356097
553 1 0.314603 0.17852 0.627422
558 1 0.343069 0.209661 0.474711
600 1 0.313872 0.249333 0.606006
556 1 0.375243 0.178307 0.367221
557 1 0.374539 0.175895 0.612982
566 1 0.252157 0.252526 0.376546
592 1 0.281577 0.289757 0.500473
596 1 0.253014 0.324714 0.628234
604 1 0.253987 0.330653 0.374581
569 1 0.309839 0.250162 0.371454
590 1 0.313526 0.322358 0.608312
591 1 0.313198 0.318873 0.371069
575 1 0.253513 0.398536 0.627505
587 1 0.253002 0.397934 0.379079
589 1 0.28607 0.364848 0.514303
561 1 0.288798 0.432546 0.513588
562 1 0.253353 0.465092 0.636486
564 1 0.25447 0.466951 0.378796
481 2 0.284187 0.000100995 0.75
529 2 0.253333 0.0358081 0.875
535 2 0.284187 0.0715151 0.75
482 2 0.345897 0.000100995 0.75
530 2 0.315042 0.0358081 0.875
539 2 0.345897 0.0715151 0.75
531 2 0.376752 0.0358081 0.875
483 2 0.407606 0.000100995 0.75
532 2 0.438461 0.0358081 0.875
543 2 0.407606 0.0715151 0.75
484 2 0.469316 0.000100995 0.75
547 2 0.469316 0.0715151 0.75
534 2 0.253333 0.107222 0.875
538 1 0.283357 0.140344 0.747341
537 2 0.315042 0.107222 0.875
542 1 0.346004 0.141932 0.756722
541 2 0.376752 0.107222 0.875
524 1 0.407265 0.142924 0.998079
545 2 0.438461 0.107222 0.875
546 1 0.408463 0.143917 0.746572
548 1 0.469657 0.141172 0.750685
520 1 0.285917 0.216289 0.991022
593 1 0.254274 0.178903 0.877218
599 1 0.283992 0.213459 0.752728
598 1 0.253796 0.248921 0.874448
523 1 0.342895 0.216217 0.9908
603 1 0.345853 0.214192 0.73922
594 1 0.313992 0.178479 0.865314
595 1 0.377681 0.180397 0.870308
582 1 0.28463 0.288974 0.992024
602 1 0.282439 0.285444 0.750157
577 1 0.253525 0.320247 0.894536
576 1 0.314656 0.321528 0.862678
601 1 0.314738 0.250667 0.854281
584 1 0.282937 0.356649 0.999207
574 1 0.251566 0.390036 0.878963
573 1 0.282014 0.357126 0.747001
579 1 0.28511 0.423848 0.991185
572 1 0.288301 0.424287 0.761048
526 1 0.251139 0.462106 0.878161
525 1 0.285445 0.499146 0.752139
578 1 0.283485 0.493843 0.995311
605 1 0.254526 0.534088 0.113698
609 1 0.287709 0.570542 0.231764
620 1 0.28281 0.638342 0.00342933
659 1 0.282637 0.643339 0.239407
617 1 0.250051 0.604503 0.143376
657 1 0.251107 0.680838 0.142881
662 1 0.288141 0.710907 0.280189
673 1 0.255505 0.748215 0.136181
674 1 0.287376 0.705636 0.0326789
721 1 0.25345 0.822668 0.114855
723 1 0.284822 0.787285 0.23812
675 1 0.314034 0.753829 0.124024
724 1 0.316592 0.823664 0.115826
727 1 0.346684 0.787985 0.246216
728 1 0.37628 0.826203 0.121806
726 1 0.283781 0.857539 0.249678
735 3 0.253333 0.892778 0.125
730 1 0.346065 0.857696 0.250395
732 3 0.315042 0.892778 0.125
719 3 0.376752 0.892778 0.125
716 3 0.438461 0.892778 0.125
734 1 0.410007 0.85359 0.242281
736 1 0.466743 0.856289 0.250344
644 3 0.284187 0.999899 0
656 3 0.284187 0.999899 0.25
663 3 0.284187 0.928485 0.25
665 3 0.253333 0.964192 0.125
731 3 0.284187 0.928485 0
640 3 0.345897 0.999899 0
652 3 0.345897 0.999899 0.25
655 3 0.345897 0.928485 0.25
661 3 0.315042 0.964192 0.125
718 3 0.345897 0.928485 0
654 3 0.376752 0.964192 0.125
639 3 0.407606 0.999899 0
648 3 0.407606 0.999899 0.25
650 3 0.438461 0.964192 0.125
651 3 0.407606 0.928485 0.25
715 3 0.407606 0.928485 0
638 3 0.469316 0.999899 0
645 3 0.469316 0.999899 0.25
647 3 0.469316 0.928485 0.25
712 3 0.469316 0.928485 0
560 1 0.284818 0.50262 0.504025
606 1 0.257245 0.534988 0.360006
629 1 0.254942 0.540197 0.61846
643 1 0.290773 0.568974 0.500637
641 1 0.257351 0.602716 0.388329
642 1 0.255334 0.607865 0.634249
646 1 0.285042 0.642789 0.516748
658 1 0.254969 0.675445 0.391523
689 1 0.254182 0.677943 0.636199
705 1 0.253338 0.747242 0.383934
707 1 0.285006 0.713616 0.534055
709 1 0.320035 0.744465 0.635416
706 1 0.251798 0.751112 0.637449
703 1 0.253938 0.822865 0.617627
710 1 0.284077 0.783263 0.489669
722 1 0.252493 0.820233 0.376735
708 1 0.317287 0.753949 0.391916
700 1 0.315684 0.816013 0.613825
714 1 0.347399 0.784579 0.495541
725 1 0.313763 0.82391 0.36712
696 1 0.376552 0.822655 0.62642
729 1 0.37784 0.824735 0.373311
684 1 0.283678 0.857255 0.500284
686 3 0.253333 0.892778 0.625
687 3 0.253333 0.892778 0.375
680 1 0.345947 0.856935 0.498194
682 3 0.315042 0.892778 0.625
683 3 0.315042 0.892778 0.375
677 3 0.376752 0.892778 0.625
678 3 0.376752 0.892778 0.375
669 3 0.438461 0.892778 0.625
670 3 0.438461 0.892778 0.375
671 1 0.407756 0.856967 0.483396
667 1 0.467618 0.856909 0.496493
611 3 0.284187 0.999899 0.5
632 3 0.253333 0.964192 0.625
664 3 0.253333 0.964192 0.375
681 3 0.284187 0.928485 0.5
610 3 0.345897 0.999899 0.5
627 3 0.315042 0.964192 0.625
660 3 0.315042 0.964192 0.375
672 3 0.345897 0.928485 0.5
623 3 0.376752 0.964192 0.625
653 3 0.376752 0.964192 0.375
608 3 0.407606 0.999899 0.5
616 3 0.438461 0.964192 0.625
649 3 0.438461 0.964192 0.375
668 3 0.407606 0.928485 0.5
607 3 0.469316 0.999899 0.5
666 3 0.469316 0.928485 0.5
618 1 0.284813 0.564809 0.983999
630 1 0.254018 0.53322 0.863426
633 1 0.287064 0.576752 0.755666
691 1 0.286068 0.646193 0.7586
685 1 0.252274 0.603422 0.880538
694 1 0.283895 0.713324 0.781817
690 1 0.252917 0.677989 0.890294
704 1 0.315173 0.74536 0.888289
676 1 0.28468 0.785345 0.990811
711 1 0.251916 0.751621 0.888584
701 1 0.286807 0.779943 0.735316
702 1 0.257145 0.821697 0.864166
679 1 0.347141 0.781902 0.998107
697 1 0.34761 0.785097 0.756485
699 1 0.314508 0.818129 0.873673
695 1 0.378499 0.819666 0.881654
733 1 0.284106 0.858628 0.996822
637 3 0.253333 0.892778 0.875
698 1 0.285356 0.856297 0.743208
720 1 0.345438 0.85753 0.99477
636 3 0.315042 0.892778 0.875
693 1 0.344448 0.857685 0.746783
635 3 0.376752 0.892778 0.875
717 1 0.408286 0.855645 0.998233
634 3 0.438461 0.892778 0.875
692 1 0.408861 0.858498 0.749727
713 1 0.469671 0.857624 0.996015
688 1 0.469302 0.858453 0.747456
625 3 0.284187 0.999899 0.75
628 3 0.284187 0.928485 0.75
631 3 0.253333 0.964192 0.875
621 3 0.345897 0.999899 0.75
624 3 0.345897 0.928485 0.75
626 3 0.315042 0.964192 0.875
622 3 0.376752 0.964192 0.875
619 3 0.407606 0.928485 0.75
615 3 0.438461 0.964192 0.875
614 3 0.407606 0.999899 0.75
613 3 0.469316 0.928485 0.75
612 3 0.469316 0.999899 0.75
737 2 0.531025 0.000100995 0.25
742 2 0.531025 0.000100995 0
744 2 0.531025 0.0715151 0
778 2 0.531025 0.0715151 0.25
741 2 0.500171 0.0358081 0.125
738 2 0.592735 0.000100995 0.25
743 2 0.56188 0.0358081 0.125
745 2 0.592735 0.000100995 0
747 2 0.592735 0.0715151 0
782 2 0.592735 0.0715151 0.25
746 2 0.62359 0.0358081 0.125
739 2 0.654444 0.000100995 0.25
748 2 0.654444 0.000100995 0
749 2 0.685299 0.0358081 0.125
750 2 0.654444 0.0715151 0
786 2 0.654444 0.0715151 0.25
740 2 0.716154 0.000100995 0.25
751 2 0.716154 0.000100995 0
752 2 0.747008 0.0358081 0.125
753 2 0.716154 0.0715151 0
790 2 0.716154 0.0715151 0.25
781 1 0.531143 0.142356 0.232959
776 2 0.500171 0.107222 0.125
779 2 0.56188 0.107222 0.125
785 1 0.590281 0.150144 0.241869
798 1 0.592385 0.1423 0.00320043
783 2 0.62359 0.107222 0.125
787 2 0.685299 0.107222 0.125
789 1 0.655406 0.140108 0.251635
791 2 0.747008 0.107222 0.125
793 1 0.714849 0.145045 0.257123
799 1 0.626216 0.177348 0.127346
802 1 0.68535 0.17828 0.115341
803 1 0.654997 0.218154 0.00287483
858 1 0.656793 0.214685 0.254628
805 1 0.74299 0.178724 0.12251
862 1 0.712984 0.213441 0.258771
859 1 0.683556 0.253934 0.132985
874 1 0.684723 0.326278 0.13655
863 1 0.742354 0.251782 0.132921
865 1 0.716224 0.289673 0.260576
876 1 0.716083 0.291473 0.00326146
877 1 0.747549 0.324523 0.119348
857 1 0.715729 0.360108 0.246061
878 1 0.71535 0.361675 0.0054841
856 1 0.747535 0.394822 0.123026
797 1 0.715009 0.49978 0.26846
852 1 0.747768 0.464708 0.130212
854 1 0.715954 0.431442 0.251972
851 1 0.715794 0.499937 0.00490802
760 2 0.531025 0.000100995 0.5
763 2 0.531025 0.0715151 0.5
758 2 0.500171 0.0358081 0.375
759 2 0.500171 0.0358081 0.625
761 2 0.56188 0.0358081 0.375
762 2 0.56188 0.0358081 0.625
764 2 0.592735 0.000100995 0.5
767 2 0.592735 0.0715151 0.5
765 2 0.62359 0.0358081 0.375
766 2 0.62359 0.0358081 0.625
768 2 0.654444 0.000100995 0.5
769 2 0.685299 0.0358081 0.375
770 2 0.685299 0.0358081 0.625
771 2 0.654444 0.0715151 0.5
772 2 0.716154 0.000100995 0.5
773 2 0.747008 0.0358081 0.375
774 2 0.747008 0.0358081 0.625
775 2 0.716154 0.0715151 0.5
832 1 0.533449 0.144809 0.489777
777 2 0.500171 0.107222 0.375
812 2 0.500171 0.107222 0.625
780 2 0.56188 0.107222 0.375
815 2 0.56188 0.107222 0.625
836 1 0.592359 0.14254 0.49285
784 2 0.62359 0.107222 0.375
819 2 0.62359 0.107222 0.625
788 2 0.685299 0.107222 0.375
823 2 0.685299 0.107222 0.625
840 1 0.655315 0.139852 0.500446
792 2 0.747008 0.107222 0.375
827 2 0.747008 0.107222 0.625
844 1 0.71585 0.141457 0.502124
837 1 0.624983 0.175855 0.363641
838 1 0.622794 0.174761 0.627491
841 1 0.686107 0.177718 0.390154
842 1 0.683602 0.176897 0.635929
843 1 0.652853 0.216779 0.51136
860 1 0.684551 0.248943 0.395208
880 1 0.684938 0.248356 0.633616
845 1 0.746037 0.176805 0.362953
846 1 0.748687 0.177772 0.620821
847 1 0.717102 0.212513 0.506507
864 1 0.746482 0.247007 0.373783
869 1 0.685922 0.315933 0.621555
870 1 0.681425 0.316973 0.385607
866 1 0.749613 0.324552 0.622915
867 1 0.748318 0.323988 0.367137
868 1 0.717425 0.283857 0.507891
873 1 0.74845 0.252157 0.631969
839 1 0.748662 0.395664 0.625799
855 1 0.748122 0.393596 0.376221
861 1 0.714676 0.354954 0.487808
830 1 0.748052 0.466857 0.622038
833 1 0.714137 0.426842 0.495149
831 1 0.747055 0.46371 0.375676
754 2 0.531025 0.000100995 0.75
814 2 0.531025 0.0715151 0.75
807 2 0.500171 0.0358081 0.875
755 2 0.592735 0.000100995 0.75
808 2 0.56188 0.0358081 0.875
818 2 0.592735 0.0715151 0.75
809 2 0.62359 0.0358081 0.875
756 2 0.654444 0.000100995 0.75
810 2 0.685299 0.0358081 0.875
822 2 0.654444 0.0715151 0.75
757 2 0.716154 0.000100995 0.75
811 2 0.747008 0.0358081 0.875
826 2 0.716154 0.0715151 0.75
795 1 0.53108 0.141071 0.989163
817 1 0.52922 0.143159 0.731842
813 2 0.500171 0.107222 0.875
816 2 0.56188 0.107222 0.875
821 1 0.59257 0.143209 0.749201
820 2 0.62359 0.107222 0.875
801 1 0.656935 0.143596 0.995745
824 2 0.685299 0.107222 0.875
825 1 0.655612 0.142114 0.757413
804 1 0.713557 0.143652 0.994102
828 2 0.747008 0.107222 0.875
829 1 0.716137 0.143256 0.74861
881 1 0.624817 0.175818 0.881157
884 1 0.653388 0.214241 0.748092
882 1 0.684726 0.179368 0.871401
806 1 0.715136 0.216207 0.994496
875 1 0.71751 0.215696 0.744216
883 1 0.74579 0.175828 0.870826
879 1 0.685737 0.25072 0.874813
850 1 0.684829 0.319579 0.880713
872 1 0.747339 0.253262 0.888861
871 1 0.718189 0.28615 0.756955
849 1 0.747191 0.32594 0.871679
848 1 0.713731 0.363099 0.743944
835 1 0.748376 0.396055 0.867887
834 1 0.716768 0.433811 0.747178
853 1 0.717338 0.429489 0.992093
796 1 0.746602 0.466536 0.867011
896 1 0.74542 0.535186 0.155245
898 1 0.7151 0.570287 0.286196
909 1 0.713728 0.568948 0.0345864
910 1 0.748435 0.606162 0.129681
958 1 0.716143 0.642598 0.246272
970 1 0.683403 0.746635 0.111705
961 1 0.715301 0.715697 0.246049
959 1 0.748044 0.678831 0.118278
1023 1 0.623283 0.824469 0.107139
1019 1 0.687139 0.820113 0.113228
1020 1 0.655655 0.788394 0.23878
973 1 0.745479 0.751534 0.128164
1008 1 0.747108 0.822441 0.119168
1016 1 0.714578 0.786072 0.247653
1021 1 0.530628 0.856946 0.234505
1005 3 0.500171 0.892778 0.125
1003 3 0.56188 0.892778 0.125
1022 1 0.592258 0.857674 0.256866
1000 3 0.62359 0.892778 0.125
993 3 0.685299 0.892778 0.125
1017 1 0.655929 0.860218 0.237632
990 3 0.747008 0.892778 0.125
1006 1 0.716547 0.858347 0.249199
921 3 0.531025 0.999899 0
937 3 0.531025 0.999899 0.25
944 3 0.531025 0.928485 0.25
1002 3 0.531025 0.928485 0
946 3 0.500171 0.964192 0.125
920 3 0.592735 0.999899 0
933 3 0.592735 0.999899 0.25
936 3 0.592735 0.928485 0.25
939 3 0.56188 0.964192 0.125
999 3 0.592735 0.928485 0
935 3 0.62359 0.964192 0.125
919 3 0.654444 0.999899 0
929 3 0.654444 0.999899 0.25
931 3 0.685299 0.964192 0.125
932 3 0.654444 0.928485 0.25
992 3 0.654444 0.928485 0
918 3 0.716154 0.999899 0
922 3 0.716154 0.999899 0.25
927 3 0.747008 0.964192 0.125
928 3 0.716154 0.928485 0.25
989 3 0.716154 0.928485 0
897 1 0.749358 0.535934 0.399875
923 1 0.748723 0.539009 0.666315
940 1 0.72034 0.575852 0.531909
800 1 0.717412 0.501935 0.511745
941 1 0.748432 0.606769 0.376055
943 1 0.716544 0.643753 0.507305
942 1 0.74856 0.611868 0.6427
1010 1 0.684997 0.748677 0.617008
960 1 0.744996 0.678905 0.370508