Created by Ilya Fedorov for Hydrogen research

2000 atoms
2 atom types

0.000000 26.540779 xlo xhi
0.000000 26.540779 ylo yhi
0.000000 26.540779 zlo zhi

Masses

1 1.007940
2 1.000000

Atoms

1	1	1.000000	0	0.000000	-0.001699	-0.309658	0.627149
2	1	1.000000	0	0.000000	0.001699	0.309658	-0.627149
3	2	0.000000	1	1.823572	-0.000459	-0.083691	0.169500
4	2	0.000000	-1	1.823572	0.000918	0.167383	-0.338999
5	1	1.000000	0	0.000000	0.663422	0.204663	3.402392
6	1	1.000000	0	0.000000	-0.663422	-0.204663	3.232802
7	2	0.000000	1	1.823572	0.179303	0.055314	3.340515
8	2	0.000000	-1	1.823572	-0.358607	-0.110629	3.271762
9	1	1.000000	0	0.000000	0.172097	0.101677	7.305456
10	1	1.000000	0	0.000000	-0.172097	-0.101677	5.964933
11	2	0.000000	1	1.823572	0.046513	0.027480	6.816347
12	2	0.000000	-1	1.823572	-0.093025	-0.054961	6.272891
13	1	1.000000	0	0.000000	0.459664	-0.524504	16.641003
14	1	1.000000	0	0.000000	-0.459664	0.524504	16.534970
15	2	0.000000	1	1.823572	0.124234	-0.141758	16.602316
16	2	0.000000	-1	1.823572	-0.248467	0.283516	16.559329
17	1	1.000000	0	0.000000	0.057436	0.651608	13.518008
18	1	1.000000	0	0.000000	-0.057436	-0.651608	13.022771
19	2	0.000000	1	1.823572	0.015523	0.176110	13.337313
20	2	0.000000	-1	1.823572	-0.031047	-0.352220	13.136541
21	1	1.000000	0	0.000000	-0.105912	2.948101	0.691367
22	1	1.000000	0	0.000000	0.105912	2.949850	-0.691367
23	2	0.000000	1	1.823572	-0.028625	2.948739	0.186856
24	2	0.000000	-1	1.823572	0.057249	2.949448	-0.373712
25	1	1.000000	0	0.000000	0.556916	3.347663	23.364953
26	1	1.000000	0	0.000000	-0.556916	2.550288	23.081410
27	2	0.000000	1	1.823572	0.150518	3.056729	23.261498
28	2	0.000000	-1	1.823572	-0.301036	2.733469	23.146548
29	1	1.000000	0	0.000000	0.610087	3.258730	20.050680
30	1	1.000000	0	0.000000	-0.610087	2.639221	19.760489
31	2	0.000000	1	1.823572	0.164888	3.032693	19.944799
32	2	0.000000	-1	1.823572	-0.329777	2.781541	19.827154
33	1	1.000000	0	0.000000	-0.054099	2.890550	10.647678
34	1	1.000000	0	0.000000	0.054099	3.007401	9.257906
35	2	0.000000	1	1.823572	-0.014621	2.933185	10.140599
36	2	0.000000	-1	1.823572	0.029242	2.980557	9.577178
37	1	1.000000	0	0.000000	-0.359700	2.390399	13.489054
38	1	1.000000	0	0.000000	0.359700	3.507552	13.051725
39	2	0.000000	1	1.823572	-0.097216	2.798009	13.329488
40	2	0.000000	-1	1.823572	0.194433	3.250909	13.152192
41	1	1.000000	0	0.000000	-0.443963	5.868304	0.539652
42	1	1.000000	0	0.000000	0.443963	5.927597	-0.539652
43	2	0.000000	1	1.823572	-0.119990	5.889938	0.145852
44	2	0.000000	-1	1.823572	0.239980	5.913976	-0.291704
45	1	1.000000	0	0.000000	0.228303	6.258278	3.871897
46	1	1.000000	0	0.000000	-0.228303	5.537623	2.763298
47	2	0.000000	1	1.823572	0.061704	5.995337	3.467408
48	2	0.000000	-1	1.823572	-0.123407	5.703179	3.017976
49	1	1.000000	0	0.000000	-0.036522	5.401068	7.126091
50	1	1.000000	0	0.000000	0.036522	6.394834	6.144298
51	2	0.000000	1	1.823572	-0.009871	5.763658	6.767869
52	2	0.000000	-1	1.823572	0.019742	6.166536	6.369845
53	1	1.000000	0	0.000000	-0.489601	6.392241	16.659922
54	1	1.000000	0	0.000000	0.489601	5.403661	16.516051
55	2	0.000000	1	1.823572	-0.132324	6.031543	16.607429
56	2	0.000000	-1	1.823572	0.264649	5.630767	16.549102
57	1	1.000000	0	0.000000	0.440338	6.374877	13.530869
58	1	1.000000	0	0.000000	-0.440338	5.421024	13.009909
59	2	0.000000	1	1.823572	0.119010	6.026850	13.340789
60	2	0.000000	-1	1.823572	-0.238021	5.640153	13.129589
61	1	1.000000	0	0.000000	0.004012	9.301545	27.072298
62	1	1.000000	0	0.000000	-0.004012	8.392308	26.009260
63	2	0.000000	1	1.823572	0.001084	8.969796	26.684432
64	2	0.000000	-1	1.823572	-0.002169	8.601186	26.253471
65	1	1.000000	0	0.000000	-0.380714	9.418953	23.353750
66	1	1.000000	0	0.000000	0.380714	8.274899	23.092613
67	2	0.000000	1	1.823572	-0.102896	9.001528	23.258470
68	2	0.000000	-1	1.823572	0.205791	8.537722	23.152604
69	1	1.000000	0	0.000000	-0.224737	8.884734	20.566848
70	1	1.000000	0	0.000000	0.224737	8.809118	19.244320
71	2	0.000000	1	1.823572	-0.060740	8.857145	20.084304
72	2	0.000000	-1	1.823572	0.121479	8.826490	19.548144
73	1	1.000000	0	0.000000	0.018894	8.512187	17.201826
74	1	1.000000	0	0.000000	-0.018894	9.181665	15.974147
75	2	0.000000	1	1.823572	0.005106	8.756456	16.753889
76	2	0.000000	-1	1.823572	-0.010213	9.027866	16.256181
77	1	1.000000	0	0.000000	-0.250892	8.678544	13.901188
78	1	1.000000	0	0.000000	0.250892	9.015309	12.639591
79	2	0.000000	1	1.823572	-0.067809	8.801417	13.440875
80	2	0.000000	-1	1.823572	0.135617	8.937944	12.929417
81	1	1.000000	0	0.000000	0.325397	11.226125	0.242236
82	1	1.000000	0	0.000000	-0.325397	12.365678	-0.242236
83	2	0.000000	1	1.823572	0.087945	11.641908	0.065469
84	2	0.000000	-1	1.823572	-0.175890	12.103889	-0.130938
85	1	1.000000	0	0.000000	0.110363	11.691067	23.905850
86	1	1.000000	0	0.000000	-0.110363	11.900736	22.540513
87	2	0.000000	1	1.823572	0.029828	11.767568	23.407686
88	2	0.000000	-1	1.823572	-0.059656	11.852569	22.854171
89	1	1.000000	0	0.000000	-0.172580	11.118622	19.932319
90	1	1.000000	0	0.000000	0.172580	12.473181	19.878849
91	2	0.000000	1	1.823572	-0.046643	11.612853	19.912810
92	2	0.000000	-1	1.823572	0.093287	12.161999	19.891133
93	1	1.000000	0	0.000000	0.481373	11.566168	10.405240
94	1	1.000000	0	0.000000	-0.481373	12.025635	9.500344
95	2	0.000000	1	1.823572	0.130101	11.733812	10.075075
96	2	0.000000	-1	1.823572	-0.260202	11.920082	9.708226
97	1	1.000000	0	0.000000	-0.173781	11.635689	13.928674
98	1	1.000000	0	0.000000	0.173781	11.956114	12.612105
99	2	0.000000	1	1.823572	-0.046968	11.752601	13.448304
100	2	0.000000	-1	1.823572	0.093936	11.882503	12.914560
101	1	1.000000	0	0.000000	-0.021780	14.726587	0.698854
102	1	1.000000	0	0.000000	0.021780	14.763167	-0.698854
103	2	0.000000	1	1.823572	-0.005886	14.739934	0.188880
104	2	0.000000	-1	1.823572	0.011773	14.754763	-0.377759
105	1	1.000000	0	0.000000	-0.388717	14.225077	23.483782
106	1	1.000000	0	0.000000	0.388717	15.264677	22.962580
107	2	0.000000	1	1.823572	-0.105059	14.604390	23.293614
108	2	0.000000	-1	1.823572	0.210117	15.025850	23.082316
109	1	1.000000	0	0.000000	0.497214	14.633444	7.114326
110	1	1.000000	0	0.000000	-0.497214	14.856310	6.156063
111	2	0.000000	1	1.823572	0.134382	14.714760	6.764690
112	2	0.000000	-1	1.823572	-0.268765	14.805111	6.376205
113	1	1.000000	0	0.000000	-0.597237	14.957837	10.248025
114	1	1.000000	0	0.000000	0.597237	14.531917	9.657559
115	2	0.000000	1	1.823572	-0.161415	14.802434	10.032585
116	2	0.000000	-1	1.823572	0.322831	14.629763	9.793207
117	1	1.000000	0	0.000000	-0.400758	15.317960	13.283603
118	1	1.000000	0	0.000000	0.400758	14.171794	13.257176
119	2	0.000000	1	1.823572	-0.108313	14.899764	13.273961
120	2	0.000000	-1	1.823572	0.216626	14.435102	13.263247
121	1	1.000000	0	0.000000	-0.408729	17.500238	0.533536
122	1	1.000000	0	0.000000	0.408729	17.887467	-0.533536
123	2	0.000000	1	1.823572	-0.110467	17.641524	0.144199
124	2	0.000000	-1	1.823572	0.220935	17.798509	-0.288398
125	1	1.000000	0	0.000000	0.043851	18.372871	23.385097
126	1	1.000000	0	0.000000	-0.043851	17.014834	23.061266
127	2	0.000000	1	1.823572	0.011852	17.877371	23.266942
128	2	0.000000	-1	1.823572	-0.023703	17.326815	23.135659
129	1	1.000000	0	0.000000	-0.581103	17.810144	20.277070
130	1	1.000000	0	0.000000	0.581103	17.577561	19.534098
131	2	0.000000	1	1.823572	-0.157055	17.725283	20.005986
132	2	0.000000	-1	1.823572	0.314110	17.630992	19.704781
133	1	1.000000	0	0.000000	-0.402331	17.205684	10.251167
134	1	1.000000	0	0.000000	0.402331	18.182021	9.654418
135	2	0.000000	1	1.823572	-0.108738	17.561915	10.033434
136	2	0.000000	-1	1.823572	0.217476	17.957727	9.791508
137	1	1.000000	0	0.000000	0.016972	17.667075	13.969103
138	1	1.000000	0	0.000000	-0.016972	17.720630	12.571675
139	2	0.000000	1	1.823572	0.004587	17.686615	13.459231
140	2	0.000000	-1	1.823572	-0.009174	17.708327	12.892706
141	1	1.000000	0	0.000000	-0.513234	20.511754	0.456746
142	1	1.000000	0	0.000000	0.513234	20.773902	-0.456746
143	2	0.000000	1	1.823572	-0.138712	20.607402	0.123445
144	2	0.000000	-1	1.823572	0.277424	20.713679	-0.246890
145	1	1.000000	0	0.000000	0.583380	20.791271	3.673742
146	1	1.000000	0	0.000000	-0.583380	20.494385	2.961453
147	2	0.000000	1	1.823572	0.157670	20.682948	3.413853
148	2	0.000000	-1	1.823572	-0.315340	20.562588	3.125087
149	1	1.000000	0	0.000000	0.194337	21.260792	6.898937
150	1	1.000000	0	0.000000	-0.194337	20.024864	6.371452
151	2	0.000000	1	1.823572	0.052524	20.809845	6.706476
152	2	0.000000	-1	1.823572	-0.105047	20.308793	6.492631
153	1	1.000000	0	0.000000	0.188189	19.984179	10.094119
154	1	1.000000	0	0.000000	-0.188189	21.301476	9.811465
155	2	0.000000	1	1.823572	0.050862	20.464815	9.990989
156	2	0.000000	-1	1.823572	-0.101724	20.998854	9.876399
157	1	1.000000	0	0.000000	-0.035301	20.626702	13.968745
158	1	1.000000	0	0.000000	0.035301	20.658954	12.572034
159	2	0.000000	1	1.823572	-0.009541	20.638470	13.459134
160	2	0.000000	-1	1.823572	0.019082	20.651545	12.892900
161	1	1.000000	0	0.000000	-0.187839	23.694091	0.665928
162	1	1.000000	0	0.000000	0.187839	23.489516	-0.665928
163	2	0.000000	1	1.823572	-0.050767	23.619449	0.179981
164	2	0.000000	-1	1.823572	0.101535	23.536513	-0.359961
165	1	1.000000	0	0.000000	0.255950	23.400492	3.939768
166	1	1.000000	0	0.000000	-0.255950	23.783115	2.695427
167	2	0.000000	1	1.823572	0.069176	23.540097	3.485751
168	2	0.000000	-1	1.823572	-0.138351	23.695215	2.981289
169	1	1.000000	0	0.000000	0.311894	23.592569	7.261236
170	1	1.000000	0	0.000000	-0.311894	23.591038	6.009153
171	2	0.000000	1	1.823572	0.084296	23.592010	6.804395
172	2	0.000000	-1	1.823572	-0.168592	23.591389	6.296794
173	1	1.000000	0	0.000000	0.588580	23.839133	10.238463
174	1	1.000000	0	0.000000	-0.588580	23.344474	9.667121
175	2	0.000000	1	1.823572	0.159076	23.658649	10.030000
176	2	0.000000	-1	1.823572	-0.318151	23.458112	9.798375
177	1	1.000000	0	0.000000	0.101248	23.222457	13.855657
178	1	1.000000	0	0.000000	-0.101248	23.961150	12.685122
179	2	0.000000	1	1.823572	0.027364	23.491980	13.428570
180	2	0.000000	-1	1.823572	-0.054729	23.791450	12.954028
181	1	1.000000	0	0.000000	0.009017	26.573952	0.698588
182	1	1.000000	0	0.000000	-0.009017	26.507606	-0.698588
183	2	0.000000	1	1.823572	0.002437	26.549744	0.188807
184	2	0.000000	-1	1.823572	-0.004874	26.522847	-0.377615
185	1	1.000000	0	0.000000	0.084803	26.468146	4.008060
186	1	1.000000	0	0.000000	-0.084803	26.613412	2.627134
187	2	0.000000	1	1.823572	0.022920	26.521148	3.504209
188	2	0.000000	-1	1.823572	-0.045840	26.580040	2.944374
189	1	1.000000	0	0.000000	0.289474	26.294007	7.222148
190	1	1.000000	0	0.000000	-0.289474	26.787551	6.048241
191	2	0.000000	1	1.823572	0.078236	26.474084	6.793831
192	2	0.000000	-1	1.823572	-0.156473	26.674169	6.317922
193	1	1.000000	0	0.000000	0.519030	26.432721	17.044208
194	1	1.000000	0	0.000000	-0.519030	26.648836	16.131766
195	2	0.000000	1	1.823572	0.140278	26.511574	16.711290
196	2	0.000000	-1	1.823572	-0.280557	26.599188	16.341381
197	1	1.000000	0	0.000000	0.543942	26.340231	13.661687
198	1	1.000000	0	0.000000	-0.543942	26.741326	12.879092
199	2	0.000000	1	1.823572	0.147011	26.486577	13.376145
200	2	0.000000	-1	1.823572	-0.294023	26.649183	13.058877
201	1	1.000000	0	0.000000	2.962437	-0.063068	0.696454
202	1	1.000000	0	0.000000	2.935514	0.063068	-0.696454
203	2	0.000000	1	1.823572	2.952614	-0.017045	0.188231
204	2	0.000000	-1	1.823572	2.941699	0.034091	-0.376461
205	1	1.000000	0	0.000000	3.362825	-0.354454	3.756114
206	1	1.000000	0	0.000000	2.535125	0.354454	2.879081
207	2	0.000000	1	1.823572	3.060827	-0.095799	3.436115
208	2	0.000000	-1	1.823572	2.725273	0.191597	3.080561
209	1	1.000000	0	0.000000	3.259818	0.560847	6.914540
210	1	1.000000	0	0.000000	2.638133	-0.560847	6.355849
211	2	0.000000	1	1.823572	3.032987	0.151580	6.710693
212	2	0.000000	-1	1.823572	2.780952	-0.303161	6.484197
213	1	1.000000	0	0.000000	2.747328	-0.296528	10.553305
214	1	1.000000	0	0.000000	3.150623	0.296528	9.352279
215	2	0.000000	1	1.823572	2.894476	-0.080143	10.115093
216	2	0.000000	-1	1.823572	3.057974	0.160285	9.628190
217	1	1.000000	0	0.000000	2.927942	0.375731	13.859957
218	1	1.000000	0	0.000000	2.970009	-0.375731	12.680822
219	2	0.000000	1	1.823572	2.943291	0.101549	13.429732
220	2	0.000000	-1	1.823572	2.960345	-0.203098	12.951704
221	1	1.000000	0	0.000000	3.181552	3.053159	27.192131
222	1	1.000000	0	0.000000	2.716398	2.844791	25.889426
223	2	0.000000	1	1.823572	3.011834	2.977133	26.716820
224	2	0.000000	-1	1.823572	2.823258	2.892660	26.188696
225	1	1.000000	0	0.000000	2.560452	2.459950	23.537999
226	1	1.000000	0	0.000000	3.337499	3.438001	22.908364
227	2	0.000000	1	1.823572	2.843969	2.816806	23.308267
228	2	0.000000	-1	1.823572	3.158988	3.213313	23.053010
229	1	1.000000	0	0.000000	3.408785	2.491738	6.897331
230	1	1.000000	0	0.000000	2.489166	3.406213	6.373059
231	2	0.000000	1	1.823572	3.073248	2.825398	6.706042
232	2	0.000000	-1	1.823572	2.700430	3.196131	6.493500
233	1	1.000000	0	0.000000	2.559445	2.381848	16.713837
234	1	1.000000	0	0.000000	3.338506	3.516103	16.462137
235	2	0.000000	1	1.823572	2.843697	2.795698	16.622000
236	2	0.000000	-1	1.823572	3.159533	3.255531	16.519960
237	1	1.000000	0	0.000000	3.019434	3.257523	13.894120
238	1	1.000000	0	0.000000	2.878517	2.640428	12.646658
239	2	0.000000	1	1.823572	2.968018	3.032367	13.438965
240	2	0.000000	-1	1.823572	2.910890	2.782193	12.933237
241	1	1.000000	0	0.000000	3.603446	5.874391	0.245600
242	1	1.000000	0	0.000000	2.294505	5.921511	-0.245600
243	2	0.000000	1	1.823572	3.125859	5.891583	0.066378
244	2	0.000000	-1	1.823572	2.595207	5.910686	-0.132757
245	1	1.000000	0	0.000000	2.271604	5.920169	3.490457
246	1	1.000000	0	0.000000	3.626347	5.875732	3.144737
247	2	0.000000	1	1.823572	2.765902	5.903956	3.364316
248	2	0.000000	-1	1.823572	3.315122	5.885941	3.224160
249	1	1.000000	0	0.000000	2.948959	5.899491	20.605015
250	1	1.000000	0	0.000000	2.948991	5.896411	19.206153
251	2	0.000000	1	1.823572	2.948971	5.898367	20.094619
252	2	0.000000	-1	1.823572	2.948984	5.897118	19.527513
253	1	1.000000	0	0.000000	2.899854	5.779709	10.640405
254	1	1.000000	0	0.000000	2.998097	6.016193	9.265179
255	2	0.000000	1	1.823572	2.935699	5.865993	10.138633
256	2	0.000000	-1	1.823572	2.975527	5.961866	9.581109
257	1	1.000000	0	0.000000	2.944454	5.892385	13.969785
258	1	1.000000	0	0.000000	2.953497	5.903517	12.570993
259	2	0.000000	1	1.823572	2.947753	5.896447	13.459415
260	2	0.000000	-1	1.823572	2.951419	5.900959	12.892337
261	1	1.000000	0	0.000000	3.395213	9.146260	26.988526
262	1	1.000000	0	0.000000	2.502738	8.547593	26.093031
263	2	0.000000	1	1.823572	3.069580	8.927827	26.661791
264	2	0.000000	-1	1.823572	2.707766	8.685124	26.298753
265	1	1.000000	0	0.000000	2.467698	8.344164	23.292525
266	1	1.000000	0	0.000000	3.430253	9.349688	23.153837
267	2	0.000000	1	1.823572	2.818900	8.711045	23.241923
268	2	0.000000	-1	1.823572	3.209126	9.118689	23.185698
269	1	1.000000	0	0.000000	3.233433	8.726021	7.262628
270	1	1.000000	0	0.000000	2.664518	8.967831	6.007762
271	2	0.000000	1	1.823572	3.025856	8.814249	6.804771
272	2	0.000000	-1	1.823572	2.795214	8.912280	6.296042
273	1	1.000000	0	0.000000	3.451774	8.370882	10.051694
274	1	1.000000	0	0.000000	2.446177	9.322971	9.853890
275	2	0.000000	1	1.823572	3.084867	8.718266	9.979522
276	2	0.000000	-1	1.823572	2.677192	9.104248	9.899332
277	1	1.000000	0	0.000000	2.704840	8.953544	13.917102
278	1	1.000000	0	0.000000	3.193111	8.740308	12.623677
279	2	0.000000	1	1.823572	2.882993	8.875742	13.445176
280	2	0.000000	-1	1.823572	3.080941	8.789295	12.920815
281	1	1.000000	0	0.000000	3.486982	12.032742	26.919807
282	1	1.000000	0	0.000000	2.410969	11.559061	26.161751
283	2	0.000000	1	1.823572	3.094383	11.859913	26.643219
284	2	0.000000	-1	1.823572	2.658161	11.667880	26.335899
285	1	1.000000	0	0.000000	2.374066	11.413847	23.335960
286	1	1.000000	0	0.000000	3.523885	12.177957	23.110403
287	2	0.000000	1	1.823572	2.793594	11.692644	23.253662
288	2	0.000000	-1	1.823572	3.259738	12.002418	23.162220
289	1	1.000000	0	0.000000	3.515864	12.165318	6.812327
290	1	1.000000	0	0.000000	2.382087	11.426486	6.458063
291	2	0.000000	1	1.823572	3.102188	11.895744	6.683068
292	2	0.000000	-1	1.823572	2.642549	11.596217	6.539448
293	1	1.000000	0	0.000000	2.559481	12.314601	16.849619
294	1	1.000000	0	0.000000	3.338470	11.277203	16.326354
295	2	0.000000	1	1.823572	2.843707	11.936091	16.658698
296	2	0.000000	-1	1.823572	3.159513	11.515524	16.446564
297	1	1.000000	0	0.000000	3.015896	11.981213	13.941499
298	1	1.000000	0	0.000000	2.882055	11.610590	12.599280
299	2	0.000000	1	1.823572	2.967062	11.845986	13.451770
300	2	0.000000	-1	1.823572	2.912802	11.695733	12.907628
301	1	1.000000	0	0.000000	3.364394	14.674999	27.099125
302	1	1.000000	0	0.000000	2.533557	14.814756	25.982432
303	2	0.000000	1	1.823572	3.061251	14.725991	26.691683
304	2	0.000000	-1	1.823572	2.724425	14.782649	26.238970
305	1	1.000000	0	0.000000	3.300856	14.900754	23.807209
306	1	1.000000	0	0.000000	2.597095	14.589000	22.639153
307	2	0.000000	1	1.823572	3.044078	14.787006	23.381027
308	2	0.000000	-1	1.823572	2.758770	14.660619	22.907491
309	1	1.000000	0	0.000000	2.945405	14.736569	7.334569
310	1	1.000000	0	0.000000	2.952546	14.753185	5.935820
311	2	0.000000	1	1.823572	2.948010	14.742632	6.824215
312	2	0.000000	-1	1.823572	2.950905	14.749368	6.257154
313	1	1.000000	0	0.000000	3.046147	14.159320	10.322774
314	1	1.000000	0	0.000000	2.851804	15.330434	9.582810
315	2	0.000000	1	1.823572	2.975238	14.586618	10.052787
316	2	0.000000	-1	1.823572	2.896450	15.061394	9.752802
317	1	1.000000	0	0.000000	2.439771	14.407919	13.611529
318	1	1.000000	0	0.000000	3.458180	15.081835	12.929250
319	2	0.000000	1	1.823572	2.811353	14.653807	13.362589
320	2	0.000000	-1	1.823572	3.224221	14.927017	13.085990
321	1	1.000000	0	0.000000	3.105791	17.581645	0.672328
322	1	1.000000	0	0.000000	2.792160	17.806060	-0.672328
323	2	0.000000	1	1.823572	2.991358	17.663526	0.181710
324	2	0.000000	-1	1.823572	2.864210	17.754505	-0.363420
325	1	1.000000	0	0.000000	2.325826	17.491473	23.467996
326	1	1.000000	0	0.000000	3.572124	17.896232	22.978367
327	2	0.000000	1	1.823572	2.780557	17.639155	23.289347
328	2	0.000000	-1	1.823572	3.285813	17.803247	23.090849
329	1	1.000000	0	0.000000	3.026503	17.689922	20.600696
330	1	1.000000	0	0.000000	2.871448	17.697783	19.210472
331	2	0.000000	1	1.823572	2.969929	17.692790	20.093452
332	2	0.000000	-1	1.823572	2.907069	17.695977	19.529848
333	1	1.000000	0	0.000000	2.913011	17.747746	10.649217
334	1	1.000000	0	0.000000	2.984940	17.639959	9.256367
335	2	0.000000	1	1.823572	2.939255	17.708418	10.141015
336	2	0.000000	-1	1.823572	2.968416	17.664721	9.576346
337	1	1.000000	0	0.000000	2.541807	17.137936	13.390294
338	1	1.000000	0	0.000000	3.356144	18.249769	13.150485
339	2	0.000000	1	1.823572	2.838930	17.543605	13.302796
340	2	0.000000	-1	1.823572	3.169067	17.994348	13.205576
341	1	1.000000	0	0.000000	2.425472	21.051766	0.218908
342	1	1.000000	0	0.000000	3.472478	20.233890	-0.218908
343	2	0.000000	1	1.823572	2.807488	20.753352	0.059164
344	2	0.000000	-1	1.823572	3.231950	20.421780	-0.118328
345	1	1.000000	0	0.000000	2.797632	20.455771	23.879924
346	1	1.000000	0	0.000000	3.100319	20.829884	22.566438
347	2	0.000000	1	1.823572	2.908072	20.592272	23.400679
348	2	0.000000	-1	1.823572	3.030783	20.743939	22.868185
349	1	1.000000	0	0.000000	3.140528	21.077716	20.418796
350	1	1.000000	0	0.000000	2.757423	20.207940	19.392372
351	2	0.000000	1	1.823572	3.000746	20.760365	20.044290
352	2	0.000000	-1	1.823572	2.845433	20.407753	19.628172
353	1	1.000000	0	0.000000	3.552150	20.632583	16.941938
354	1	1.000000	0	0.000000	2.345801	20.653073	16.234035
355	2	0.000000	1	1.823572	3.111996	20.640059	16.683649
356	2	0.000000	-1	1.823572	2.622935	20.648366	16.396661
357	1	1.000000	0	0.000000	2.397566	21.030607	13.456887
358	1	1.000000	0	0.000000	3.500385	20.255048	13.083892
359	2	0.000000	1	1.823572	2.799946	20.747633	13.320794
360	2	0.000000	-1	1.823572	3.247034	20.433217	13.169580
361	1	1.000000	0	0.000000	3.358096	24.107669	26.776807
362	1	1.000000	0	0.000000	2.539855	23.075938	26.304750
363	2	0.000000	1	1.823572	3.059549	23.731226	26.604570
364	2	0.000000	-1	1.823572	2.727829	23.312957	26.413196
365	1	1.000000	0	0.000000	2.821843	23.824781	3.964718
366	1	1.000000	0	0.000000	3.076108	23.358825	2.670477
367	2	0.000000	1	1.823572	2.914615	23.654770	3.492495
368	2	0.000000	-1	1.823572	3.017696	23.465869	2.967802
369	1	1.000000	0	0.000000	2.418912	23.136785	6.669809
370	1	1.000000	0	0.000000	3.479038	24.046821	6.600580
371	2	0.000000	1	1.823572	2.805715	23.468825	6.644550
372	2	0.000000	-1	1.823572	3.235496	23.837759	6.616484
373	1	1.000000	0	0.000000	2.391672	23.194346	10.096483
374	1	1.000000	0	0.000000	3.506279	23.989261	9.809101
375	2	0.000000	1	1.823572	2.798353	23.484382	9.991627
376	2	0.000000	-1	1.823572	3.250220	23.806645	9.875121
377	1	1.000000	0	0.000000	2.756284	23.550152	13.941464
378	1	1.000000	0	0.000000	3.141667	23.633454	12.599314
379	2	0.000000	1	1.823572	2.896897	23.580546	13.451761
380	2	0.000000	-1	1.823572	3.053133	23.614317	12.907646
381	1	1.000000	0	0.000000	2.401579	26.124478	0.127504
382	1	1.000000	0	0.000000	3.496372	26.957079	-0.127504
383	2	0.000000	1	1.823572	2.801030	26.428265	0.034461
384	2	0.000000	-1	1.823572	3.244866	26.765806	-0.068921
385	1	1.000000	0	0.000000	2.920318	26.570289	23.921404
386	1	1.000000	0	0.000000	2.977633	26.511269	22.524959
387	2	0.000000	1	1.823572	2.941230	26.548754	23.411890
388	2	0.000000	-1	1.823572	2.964466	26.524827	22.845764
389	1	1.000000	0	0.000000	2.867147	26.628289	7.324290
390	1	1.000000	0	0.000000	3.030804	26.453268	5.946099
391	2	0.000000	1	1.823572	2.926860	26.564430	6.821437
392	2	0.000000	-1	1.823572	2.993207	26.493476	6.262711
393	1	1.000000	0	0.000000	3.261846	26.686931	17.196228
394	1	1.000000	0	0.000000	2.636105	26.394627	15.979745
395	2	0.000000	1	1.823572	3.033535	26.580279	16.752376
396	2	0.000000	-1	1.823572	2.779856	26.461778	16.259207
397	1	1.000000	0	0.000000	3.018711	26.460931	13.961741
398	1	1.000000	0	0.000000	2.879240	26.620626	12.579037
399	2	0.000000	1	1.823572	2.967823	26.519198	13.457241
400	2	0.000000	-1	1.823572	2.911281	26.583940	12.896686
401	1	1.000000	0	0.000000	5.243055	-0.058746	26.779247
402	1	1.000000	0	0.000000	6.552846	0.058746	26.302311
403	2	0.000000	1	1.823572	5.720952	-0.015877	26.605230
404	2	0.000000	-1	1.823572	6.251948	0.031755	26.411877
405	1	1.000000	0	0.000000	6.109898	0.371971	23.776284
406	1	1.000000	0	0.000000	5.686004	-0.371971	22.670079
407	2	0.000000	1	1.823572	5.955234	0.100533	23.372669
408	2	0.000000	-1	1.823572	5.783385	-0.201065	22.924207
409	1	1.000000	0	0.000000	5.901023	0.001408	20.605009
410	1	1.000000	0	0.000000	5.894878	-0.001408	19.206159
411	2	0.000000	1	1.823572	5.898781	0.000381	20.094618
412	2	0.000000	-1	1.823572	5.896290	-0.000761	19.527517
413	1	1.000000	0	0.000000	5.895004	0.012399	10.652109
414	1	1.000000	0	0.000000	5.900898	-0.012399	9.253475
415	2	0.000000	1	1.823572	5.897154	0.003351	10.141797
416	2	0.000000	-1	1.823572	5.899544	-0.006702	9.574783
417	1	1.000000	0	0.000000	5.990076	-0.128540	13.951709
418	1	1.000000	0	0.000000	5.805825	0.128540	12.589070
419	2	0.000000	1	1.823572	5.922850	-0.034741	13.454530
420	2	0.000000	-1	1.823572	5.848153	0.069481	12.902108
421	1	1.000000	0	0.000000	5.784674	3.495914	0.420990
422	1	1.000000	0	0.000000	6.011228	2.402037	-0.420990
423	2	0.000000	1	1.823572	5.867335	3.096797	0.113781
424	2	0.000000	-1	1.823572	5.959182	2.653333	-0.227562
425	1	1.000000	0	0.000000	6.163882	3.594467	23.265930
426	1	1.000000	0	0.000000	5.632020	2.303484	23.180432
427	2	0.000000	1	1.823572	5.969824	3.123433	23.234735
428	2	0.000000	-1	1.823572	5.754204	2.600061	23.200074
429	1	1.000000	0	0.000000	5.339867	2.696277	20.243063
430	1	1.000000	0	0.000000	6.456035	3.201673	19.568105
431	2	0.000000	1	1.823572	5.747117	2.880679	19.996795
432	2	0.000000	-1	1.823572	6.199618	3.085569	19.723163
433	1	1.000000	0	0.000000	5.706680	3.493469	10.347948
434	1	1.000000	0	0.000000	6.089222	2.404481	9.557636
435	2	0.000000	1	1.823572	5.846256	3.096136	10.059591
436	2	0.000000	-1	1.823572	6.001340	2.654654	9.739194
437	1	1.000000	0	0.000000	5.799815	3.032251	13.957878
438	1	1.000000	0	0.000000	5.996087	2.865700	12.582900
439	2	0.000000	1	1.823572	5.871428	2.971482	13.456197
440	2	0.000000	-1	1.823572	5.950997	2.903962	12.898774
441	1	1.000000	0	0.000000	6.361799	5.574980	26.952775
442	1	1.000000	0	0.000000	5.434103	6.220922	26.128783
443	2	0.000000	1	1.823572	6.023315	5.810661	26.652129
444	2	0.000000	-1	1.823572	5.647222	6.072530	26.318078
445	1	1.000000	0	0.000000	5.973941	6.072895	23.896105
446	1	1.000000	0	0.000000	5.821960	5.723007	22.550258
447	2	0.000000	1	1.823572	5.918489	5.945233	23.405053
448	2	0.000000	-1	1.823572	5.856875	5.803387	22.859439
449	1	1.000000	0	0.000000	5.868328	6.596608	19.919990
450	1	1.000000	0	0.000000	5.927574	5.199294	19.891179
451	2	0.000000	1	1.823572	5.889945	6.086777	19.909477
452	2	0.000000	-1	1.823572	5.913963	5.520298	19.897797
453	1	1.000000	0	0.000000	5.556712	5.852646	17.196846
454	1	1.000000	0	0.000000	6.239190	5.943255	15.979127
455	2	0.000000	1	1.823572	5.805724	5.885706	16.752543
456	2	0.000000	-1	1.823572	6.082404	5.922440	16.258874
457	1	1.000000	0	0.000000	6.352123	5.628308	13.728895
458	1	1.000000	0	0.000000	5.443779	6.167593	12.811884
459	2	0.000000	1	1.823572	6.020700	5.825074	13.394310
460	2	0.000000	-1	1.823572	5.652453	6.043704	13.022549
461	1	1.000000	0	0.000000	6.233316	8.657883	0.583952
462	1	1.000000	0	0.000000	5.562586	9.035969	-0.583952
463	2	0.000000	1	1.823572	5.988590	8.795834	0.157825
464	2	0.000000	-1	1.823572	5.716672	8.949112	-0.315649
465	1	1.000000	0	0.000000	5.824437	8.506909	23.829968
466	1	1.000000	0	0.000000	5.971465	9.186943	22.616394
467	2	0.000000	1	1.823572	5.878082	8.755030	23.387178
468	2	0.000000	-1	1.823572	5.937688	9.030719	22.895188
469	1	1.000000	0	0.000000	5.821146	8.744756	7.322849
470	1	1.000000	0	0.000000	5.974756	8.949096	5.947540
471	2	0.000000	1	1.823572	5.877193	8.819313	6.821047
472	2	0.000000	-1	1.823572	5.939467	8.902153	6.263490
473	1	1.000000	0	0.000000	5.329123	9.135502	10.239786
474	1	1.000000	0	0.000000	6.466778	8.558350	9.665798
475	2	0.000000	1	1.823572	5.744214	8.924920	10.030358
476	2	0.000000	-1	1.823572	6.205425	8.690939	9.797660
477	1	1.000000	0	0.000000	6.179246	8.613088	13.866543
478	1	1.000000	0	0.000000	5.616656	9.080765	12.674236
479	2	0.000000	1	1.823572	5.973977	8.783727	13.431512
480	2	0.000000	-1	1.823572	5.745899	8.973325	12.948144
481	1	1.000000	0	0.000000	5.389264	11.368516	0.218599
482	1	1.000000	0	0.000000	6.406638	12.223287	-0.218599
483	2	0.000000	1	1.823572	5.760468	11.680392	0.059081
484	2	0.000000	-1	1.823572	6.172917	12.026921	-0.118161
485	1	1.000000	0	0.000000	6.335584	11.250806	3.341147
486	1	1.000000	0	0.000000	5.460318	12.340997	3.294048
487	2	0.000000	1	1.823572	6.016230	11.648579	3.323962
488	2	0.000000	-1	1.823572	5.661392	12.090548	3.304868
489	1	1.000000	0	0.000000	5.423589	11.717520	20.413564
490	1	1.000000	0	0.000000	6.372313	11.874283	19.397604
491	2	0.000000	1	1.823572	5.769745	11.774718	20.042876
492	2	0.000000	-1	1.823572	6.154363	11.838270	19.631000
493	1	1.000000	0	0.000000	5.626467	11.663478	10.583638
494	1	1.000000	0	0.000000	6.169435	11.928325	9.321946
495	2	0.000000	1	1.823572	5.824577	11.760112	10.123291
496	2	0.000000	-1	1.823572	6.044699	11.867482	9.611794
497	1	1.000000	0	0.000000	6.257175	11.392107	13.714365
498	1	1.000000	0	0.000000	5.538727	12.199696	12.826414
499	2	0.000000	1	1.823572	5.995038	11.686768	13.390383
500	2	0.000000	-1	1.823572	5.703776	12.014169	13.030402
501	1	1.000000	0	0.000000	6.058122	14.346378	27.092820
502	1	1.000000	0	0.000000	5.737780	15.143376	25.988737
503	2	0.000000	1	1.823572	5.941240	14.637175	26.689979
504	2	0.000000	-1	1.823572	5.811372	14.960282	26.242378
505	1	1.000000	0	0.000000	5.617924	14.214989	3.678167
506	1	1.000000	0	0.000000	6.177977	15.274765	2.957028
507	2	0.000000	1	1.823572	5.822268	14.601664	3.415049
508	2	0.000000	-1	1.823572	6.049316	15.031303	3.122695
509	1	1.000000	0	0.000000	6.176061	15.247226	20.304966
510	1	1.000000	0	0.000000	5.619841	14.242528	19.506202
511	2	0.000000	1	1.823572	5.973116	14.880647	20.013525
512	2	0.000000	-1	1.823572	5.747621	14.473337	19.689702
513	1	1.000000	0	0.000000	5.658533	14.646967	17.237832
514	1	1.000000	0	0.000000	6.137369	14.842787	15.938141
515	2	0.000000	1	1.823572	5.833243	14.718415	16.763621
516	2	0.000000	-1	1.823572	6.027366	14.797802	16.236719
517	1	1.000000	0	0.000000	5.949273	14.943399	13.939091
518	1	1.000000	0	0.000000	5.846629	14.546355	12.601688
519	2	0.000000	1	1.823572	5.911822	14.798532	13.451119
520	2	0.000000	-1	1.823572	5.870209	14.637568	12.908929
521	1	1.000000	0	0.000000	6.016269	17.676308	27.229908
522	1	1.000000	0	0.000000	5.779633	17.711397	25.851649
523	2	0.000000	1	1.823572	5.929929	17.689111	26.727030
524	2	0.000000	-1	1.823572	5.833995	17.703336	26.168276
525	1	1.000000	0	0.000000	5.901144	17.707377	4.016892
526	1	1.000000	0	0.000000	5.894758	17.680328	2.618302
527	2	0.000000	1	1.823572	5.898814	17.697508	3.506596
528	2	0.000000	-1	1.823572	5.896225	17.686542	2.939600
529	1	1.000000	0	0.000000	6.574816	17.534329	6.710109
530	1	1.000000	0	0.000000	5.221086	17.853376	6.560280
531	2	0.000000	1	1.823572	6.080887	17.650738	6.655442
532	2	0.000000	-1	1.823572	5.532078	17.780082	6.594701
533	1	1.000000	0	0.000000	5.519665	17.762731	17.172249
534	1	1.000000	0	0.000000	6.276236	17.624974	16.003725
535	2	0.000000	1	1.823572	5.795711	17.712468	16.745895
536	2	0.000000	-1	1.823572	6.102430	17.656621	16.272169
537	1	1.000000	0	0.000000	5.961534	17.067230	13.574541
538	1	1.000000	0	0.000000	5.834368	18.320475	12.966238
539	2	0.000000	1	1.823572	5.915135	17.524495	13.352592
540	2	0.000000	-1	1.823572	5.863582	18.032567	13.105983
541	1	1.000000	0	0.000000	5.546987	20.485843	27.125062
542	1	1.000000	0	0.000000	6.248915	20.799812	25.956496
543	2	0.000000	1	1.823572	5.803096	20.600400	26.698693
544	2	0.000000	-1	1.823572	6.087661	20.727684	26.224950
545	1	1.000000	0	0.000000	5.411757	20.218006	3.586574
546	1	1.000000	0	0.000000	6.384144	21.067650	3.048621