ITEM: TIMESTEP
0
ITEM: NUMBER OF ATOMS
1344
ITEM: BOX BOUNDS ss ss pp
-3.6220122015773581e-01 5.6698782563982853e+01
-3.5200000000000006e-03 3.4849742176873065e+01
0.0000000000000000e+00 9.9560630400000001e+00
ITEM: ATOMS id type xs ys zs
1 2 0.0371918 0.000100995 0.25
5 2 0.00634762 0.0358081 0.125
6 2 0.0371918 0.000100995 0
8 2 0.0371918 0.0715151 0
39 2 0.0371918 0.0715151 0.25
2 2 0.0988802 0.000100995 0.25
7 2 0.068036 0.0358081 0.125
9 2 0.0988802 0.000100995 0
11 2 0.0988802 0.0715151 0
43 2 0.0988802 0.0715151 0.25
10 2 0.129724 0.0358081 0.125
3 2 0.160569 0.000100995 0.25
12 2 0.160569 0.000100995 0
13 2 0.191413 0.0358081 0.125
14 2 0.160569 0.0715151 0
47 2 0.160569 0.0715151 0.25
4 2 0.222257 0.000100995 0.25
15 2 0.222257 0.000100995 0
16 2 0.222257 0.0715151 0
51 2 0.222257 0.0715151 0.25
37 2 0.00634762 0.107222 0.125
42 1 0.036816 0.140475 0.251625
54 1 0.0366188 0.141335 0.00658
40 2 0.068036 0.107222 0.125
46 1 0.100328 0.143265 0.248252
44 2 0.129724 0.107222 0.125
48 2 0.191413 0.107222 0.125
50 1 0.160097 0.141704 0.256964
52 1 0.222491 0.143462 0.255058
63 1 0.222797 0.144012 0.00253741
53 1 0.00330875 0.174645 0.140147
56 1 0.035617 0.209781 0.00179528
103 1 0.0367232 0.208822 0.253094
101 1 0.00743496 0.246422 0.123947
55 1 0.0688283 0.175791 0.126711
59 1 0.0970889 0.210914 0.000773506
107 1 0.0994402 0.211499 0.255811
104 1 0.0648429 0.24549 0.111258
58 1 0.130425 0.175818 0.132293
108 1 0.129283 0.246429 0.11618
61 1 0.1922 0.178668 0.125519
62 1 0.161545 0.213581 0.00472725
111 1 0.162421 0.210539 0.256704
115 1 0.223126 0.217016 0.248474
106 1 0.0386033 0.284295 0.240743
117 1 0.00458398 0.316346 0.12272
110 1 0.0964577 0.280324 0.220651
119 1 0.0668757 0.322696 0.113253
122 1 0.126279 0.315018 0.11509
112 1 0.19243 0.250638 0.119413
114 1 0.160333 0.280379 0.241687
125 1 0.190171 0.318454 0.117122
116 1 0.223146 0.288046 0.228864
120 1 0.0359973 0.359516 0.00178358
165 1 0.00626063 0.397896 0.119204
167 1 0.0366662 0.354745 0.241307
168 1 0.0654738 0.393288 0.12098
171 1 0.0989693 0.357335 0.232053
172 1 0.13005 0.389621 0.121905
175 1 0.15911 0.351537 0.246905
176 1 0.188491 0.388127 0.12214
179 1 0.221908 0.357705 0.244822
170 1 0.0387025 0.427648 0.248026
181 1 0.00744168 0.467613 0.1217
174 1 0.0983223 0.430646 0.249114
183 1 0.0659569 0.471134 0.127526
185 1 0.0974352 0.428889 0.01248
186 1 0.129612 0.461323 0.123468
178 1 0.160661 0.422146 0.263101
189 1 0.189977 0.459462 0.117839
231 1 0.159659 0.496529 0.243184
180 1 0.220983 0.426368 0.237694
191 1 0.222229 0.428188 0.00394905
232 1 0.219638 0.49629 0.234383
21 2 0.00634762 0.0358081 0.375
22 2 0.00634762 0.0358081 0.625
23 2 0.0371918 0.000100995 0.5
26 2 0.0371918 0.0715151 0.5
24 2 0.068036 0.0358081 0.375
25 2 0.068036 0.0358081 0.625
27 2 0.0988802 0.000100995 0.5
30 2 0.0988802 0.0715151 0.5
28 2 0.129724 0.0358081 0.375
29 2 0.129724 0.0358081 0.625
31 2 0.160569 0.000100995 0.5
32 2 0.191413 0.0358081 0.375
33 2 0.191413 0.0358081 0.625
34 2 0.160569 0.0715151 0.5
35 2 0.222257 0.000100995 0.5
36 2 0.222257 0.0715151 0.5
38 2 0.00634762 0.107222 0.375
69 2 0.00634762 0.107222 0.625
87 1 0.037046 0.140127 0.504642
41 2 0.068036 0.107222 0.375
72 2 0.068036 0.107222 0.625
91 1 0.0982446 0.140816 0.497069
45 2 0.129724 0.107222 0.375
76 2 0.129724 0.107222 0.625
49 2 0.191413 0.107222 0.375
80 2 0.191413 0.107222 0.625
95 1 0.162177 0.144633 0.505884
99 1 0.22204 0.142007 0.504875
85 1 0.00353014 0.180602 0.387983
86 1 0.00807592 0.175896 0.646623
90 1 0.0368193 0.210813 0.490513
102 1 0.00970561 0.247925 0.365131
88 1 0.06734 0.174165 0.379779
89 1 0.0675662 0.174416 0.625035
94 1 0.0993152 0.207431 0.500087
105 1 0.0672506 0.246047 0.353744
136 1 0.067048 0.243445 0.608737
92 1 0.130937 0.174903 0.382428
93 1 0.131501 0.178076 0.629531
109 1 0.130665 0.243677 0.376178
140 1 0.129384 0.245404 0.625798
96 1 0.194166 0.178377 0.375781
97 1 0.193498 0.178502 0.631087
98 1 0.161703 0.2155 0.516189
100 1 0.222864 0.212968 0.494564
133 1 0.00845286 0.250531 0.618033
149 1 0.00503797 0.319016 0.375533
150 1 0.00980524 0.319121 0.613837
151 1 0.0383137 0.284213 0.485124
152 1 0.0698685 0.318312 0.352165
153 1 0.0685596 0.316015 0.610009
155 1 0.0974719 0.276219 0.472912
156 1 0.128598 0.316312 0.358536
157 1 0.127517 0.314241 0.617725
113 1 0.192212 0.253023 0.373623
144 1 0.194597 0.250847 0.610999
159 1 0.160203 0.285183 0.493452
160 1 0.191101 0.321707 0.372145
161 1 0.19301 0.320164 0.620207
163 1 0.224614 0.290102 0.486598
154 1 0.0401798 0.352961 0.484396
166 1 0.00833656 0.387332 0.379766
197 1 0.00801069 0.38933 0.619946
158 1 0.0985324 0.353333 0.483945
169 1 0.0687991 0.390802 0.358886
200 1 0.0695059 0.387359 0.613635
173 1 0.128203 0.392388 0.374062
204 1 0.127976 0.391691 0.620312
162 1 0.159457 0.357108 0.496608
177 1 0.192138 0.394129 0.385137
208 1 0.190583 0.391314 0.630739
164 1 0.222417 0.357832 0.510105
213 1 0.00878871 0.459573 0.358711
214 1 0.00121661 0.460621 0.615311
215 1 0.0397467 0.423936 0.502883
218 1 0.0346015 0.497949 0.505343
222 1 0.0989667 0.4981 0.482447
216 1 0.0672147 0.464768 0.386601
217 1 0.0681 0.463974 0.630276
219 1 0.0985828 0.427623 0.500123
220 1 0.131207 0.463759 0.373148
221 1 0.128527 0.463145 0.612395
223 1 0.16008 0.429821 0.509746
224 1 0.191331 0.462789 0.384691
225 1 0.189605 0.46722 0.63463
522 1 0.249897 0.470121 0.371463
227 1 0.222829 0.434616 0.514985
17 2 0.0371918 0.000100995 0.75
65 2 0.00634762 0.0358081 0.875
71 2 0.0371918 0.0715151 0.75
18 2 0.0988802 0.000100995 0.75
66 2 0.068036 0.0358081 0.875
75 2 0.0988802 0.0715151 0.75
67 2 0.129724 0.0358081 0.875
19 2 0.160569 0.000100995 0.75
68 2 0.191413 0.0358081 0.875
79 2 0.160569 0.0715151 0.75
20 2 0.222257 0.000100995 0.75
83 2 0.222257 0.0715151 0.75
70 2 0.00634762 0.107222 0.875
74 1 0.0375929 0.140815 0.762095
73 2 0.068036 0.107222 0.875
78 1 0.09936 0.142945 0.74736
57 1 0.101007 0.142593 0.99144
77 2 0.129724 0.107222 0.875
60 1 0.160391 0.144913 0.991178
81 2 0.191413 0.107222 0.875
82 1 0.162017 0.144159 0.75247
84 1 0.220696 0.138636 0.758478
129 1 0.00538507 0.175403 0.891299
135 1 0.0359008 0.214896 0.750976
130 1 0.0667439 0.176993 0.877195
139 1 0.0979603 0.210501 0.747058
137 1 0.0661801 0.247731 0.863841
131 1 0.131185 0.179663 0.881875
141 1 0.125566 0.247173 0.875871
132 1 0.191292 0.17856 0.883019
143 1 0.162936 0.215331 0.759982
64 1 0.221117 0.214593 0.999638
147 1 0.223401 0.212572 0.747746
118 1 0.0348961 0.283889 0.988078
134 1 0.00369632 0.25462 0.859387
138 1 0.0383744 0.285747 0.741754
193 1 0.00558242 0.32673 0.865647
121 1 0.0931521 0.284628 0.984064
142 1 0.0969195 0.280542 0.733198
194 1 0.065638 0.322167 0.862796
195 1 0.124917 0.316194 0.862538
124 1 0.158584 0.282677 0.986252
145 1 0.194311 0.251872 0.862693
146 1 0.160989 0.283998 0.741027
196 1 0.190741 0.320129 0.863572
127 1 0.221823 0.289806 0.986311
148 1 0.226029 0.285801 0.733726
198 1 0.00761623 0.397095 0.87279
199 1 0.0375247 0.359161 0.744945
123 1 0.096665 0.354881 0.993297
201 1 0.0667859 0.396059 0.87398
203 1 0.0959038 0.355073 0.739687
205 1 0.127476 0.387145 0.868443
126 1 0.158 0.351018 0.995674
207 1 0.156869 0.3528 0.739247
209 1 0.19054 0.387936 0.871918
128 1 0.222674 0.358404 0.995708
211 1 0.223618 0.353761 0.745977
182 1 0.0365284 0.433554 0.997148
233 1 0.0015782 0.46797 0.860981
202 1 0.0355973 0.431437 0.743725
234 1 0.067807 0.466049 0.873055
206 1 0.0983943 0.426201 0.749865
238 1 0.099636 0.49846 0.742656
235 1 0.127973 0.462918 0.871679
188 1 0.158368 0.422629 0.994956
239 1 0.158687 0.498717 0.747421
236 1 0.190463 0.458898 0.867686
210 1 0.159528 0.424346 0.746392
190 1 0.159978 0.495456 0.994051
240 1 0.224264 0.496574 0.761048
192 1 0.221244 0.497199 0.992311
212 1 0.222135 0.424581 0.757145
241 1 0.00309958 0.539162 0.138277
245 1 0.037633 0.572253 0.258231
254 1 0.0333332 0.571596 0.00226525
229 1 0.0356824 0.50316 0.25136
243 1 0.0656439 0.537582 0.109438
230 1 0.0991955 0.501839 0.242312
248 1 0.101313 0.571034 0.231363
246 1 0.13005 0.53226 0.102676
249 1 0.190093 0.533506 0.116885
251 1 0.159265 0.573965 0.228868
252 1 0.220377 0.571323 0.248714
263 1 0.219342 0.570681 0.00315343
569 1 0.249775 0.532838 0.128575
253 1 0.00205975 0.607754 0.123168
256 1 0.0347979 0.639773 0.00202534
295 1 0.0362147 0.640413 0.243019
255 1 0.0687862 0.607203 0.124949
299 1 0.100139 0.642763 0.256481
258 1 0.129728 0.607333 0.110391
261 1 0.189633 0.609464 0.119042
303 1 0.15846 0.646155 0.238017
264 1 0.223161 0.642353 0.0198666
307 1 0.222074 0.644164 0.265821
293 1 0.00369498 0.674914 0.121715
298 1 0.0369732 0.711026 0.245653
309 1 0.00795984 0.748245 0.114836
296 1 0.0669585 0.676853 0.120134
302 1 0.0964153 0.714743 0.237741
300 1 0.127725 0.681755 0.114737
314 1 0.12632 0.74982 0.117291
304 1 0.19055 0.679714 0.128811
306 1 0.157514 0.71801 0.2552
316 1 0.161215 0.714545 0.0014411
308 1 0.22173 0.714546 0.257351
319 1 0.223716 0.713026 0.0105685
357 1 0.00336288 0.821586 0.117796
359 1 0.0375365 0.788118 0.242599
311 1 0.06631 0.75053 0.105172
360 1 0.0675343 0.824675 0.124229
363 1 0.0960984 0.784695 0.239514
364 1 0.127543 0.820608 0.122366
317 1 0.19119 0.754404 0.133038
318 1 0.159182 0.785693 0.00279386
367 1 0.159078 0.787411 0.247511
368 1 0.19137 0.822736 0.134234
320 1 0.223201 0.78655 0.0115335
371 1 0.220778 0.788031 0.270752
362 1 0.036854 0.860259 0.241482
373 3 0.00634762 0.892778 0.125
374 1 0.0360255 0.856667 0.00152753
366 1 0.0984435 0.8571 0.25629
375 3 0.068036 0.892778 0.125
377 1 0.0984098 0.85822 0.00611504
378 3 0.129724 0.892778 0.125
370 1 0.159649 0.856662 0.252397
380 1 0.160236 0.856685 0.00448449
381 3 0.191413 0.892778 0.125
372 1 0.223316 0.855553 0.266211
383 1 0.222114 0.858593 0.0127857
376 3 0.0371918 0.928485 0
421 3 0.00634762 0.964192 0.125
423 3 0.0371918 0.928485 0.25
426 3 0.0371918 0.999899 0.25
437 3 0.0371918 0.999899 0
379 3 0.0988802 0.928485 0
424 3 0.068036 0.964192 0.125
427 3 0.0988802 0.928485 0.25
430 3 0.0988802 0.999899 0.25
438 3 0.0988802 0.999899 0
428 3 0.129724 0.964192 0.125
382 3 0.160569 0.928485 0
431 3 0.160569 0.928485 0.25
432 3 0.191413 0.964192 0.125
434 3 0.160569 0.999899 0.25
439 3 0.160569 0.999899 0
384 3 0.222257 0.928485 0
435 3 0.222257 0.928485 0.25
436 3 0.222257 0.999899 0.25
440 3 0.222257 0.999899 0
242 1 0.00324245 0.530337 0.388192
265 1 0.00695298 0.53847 0.615997
279 1 0.0372707 0.573661 0.499727
244 1 0.0690162 0.537645 0.367254
267 1 0.068561 0.534755 0.619031
283 1 0.100225 0.571703 0.484723
247 1 0.130606 0.535253 0.360795
270 1 0.131866 0.537521 0.610488
226 1 0.159294 0.502046 0.49852
250 1 0.189411 0.53448 0.37101
273 1 0.190317 0.537944 0.619609
287 1 0.160988 0.575539 0.497497
228 1 0.221118 0.505263 0.511992
291 1 0.222165 0.577618 0.505525
277 1 0.00570039 0.603397 0.38157
278 1 0.00177805 0.612478 0.618252
282 1 0.0370482 0.645504 0.499311
280 1 0.0690651 0.608134 0.373279
281 1 0.0693512 0.607883 0.6212
286 1 0.0993947 0.646607 0.497848
284 1 0.13149 0.608386 0.381135
285 1 0.128602 0.608373 0.620885
288 1 0.190556 0.609496 0.365089
289 1 0.191742 0.611226 0.619699
290 1 0.160187 0.645583 0.508149
292 1 0.224267 0.645934 0.51019
294 1 0.00598597 0.675007 0.368894
325 1 0.00476267 0.683264 0.626096
341 1 0.00844672 0.749626 0.374435
343 1 0.0378107 0.713301 0.482547
297 1 0.0684136 0.678182 0.376336
328 1 0.0668472 0.67751 0.620806
347 1 0.0963227 0.716875 0.494146
301 1 0.129257 0.682564 0.379195
332 1 0.128941 0.681302 0.634225
305 1 0.191258 0.680727 0.381085
336 1 0.195142 0.681478 0.629978
351 1 0.161858 0.713668 0.511857
355 1 0.221692 0.715098 0.500377
342 1 0.00503766 0.7553 0.634072
346 1 0.0356088 0.789155 0.493573
358 1 0.00455477 0.822704 0.377044
389 1 0.00637882 0.823981 0.624152
344 1 0.0665134 0.750569 0.36345
345 1 0.0643291 0.75198 0.61458
350 1 0.097011 0.78667 0.482944
361 1 0.0666141 0.82316 0.378911
392 1 0.066681 0.825022 0.624075
348 1 0.127792 0.753643 0.369959
349 1 0.129035 0.75051 0.625763
365 1 0.126982 0.82331 0.372283
396 1 0.128291 0.819596 0.625244
352 1 0.190238 0.750363 0.373655
353 1 0.193039 0.75406 0.63191
354 1 0.159726 0.785746 0.501393
369 1 0.18953 0.821062 0.386727
400 1 0.189589 0.823969 0.638893
356 1 0.221952 0.786821 0.512265
405 3 0.00634762 0.892778 0.375
406 3 0.00634762 0.892778 0.625
407 1 0.0358502 0.857522 0.502234
408 3 0.068036 0.892778 0.375
409 3 0.068036 0.892778 0.625
411 1 0.0984058 0.857428 0.502196
412 3 0.129724 0.892778 0.375
413 3 0.129724 0.892778 0.625
415 1 0.158252 0.857361 0.502407
416 3 0.191413 0.892778 0.375
417 3 0.191413 0.892778 0.625
419 1 0.22305 0.857404 0.507243
410 3 0.0371918 0.928485 0.5
422 3 0.00634762 0.964192 0.375
445 3 0.00634762 0.964192 0.625
461 3 0.0371918 0.999899 0.5
414 3 0.0988802 0.928485 0.5
425 3 0.068036 0.964192 0.375
448 3 0.068036 0.964192 0.625
462 3 0.0988802 0.999899 0.5
429 3 0.129724 0.964192 0.375
452 3 0.129724 0.964192 0.625
418 3 0.160569 0.928485 0.5
433 3 0.191413 0.964192 0.375
456 3 0.191413 0.964192 0.625
463 3 0.160569 0.999899 0.5
420 3 0.222257 0.928485 0.5
464 3 0.222257 0.999899 0.5
184 1 0.0343197 0.503195 0.983627
266 1 9.87014e-05 0.536619 0.868903
269 1 0.0353131 0.57194 0.748529
237 1 0.0345236 0.500197 0.744237
257 1 0.0986237 0.569529 0.983093
187 1 0.0977179 0.502478 0.993611
268 1 0.066134 0.535681 0.862603
272 1 0.0979831 0.570089 0.734965
271 1 0.128361 0.535585 0.851112
260 1 0.159842 0.570405 0.981387
274 1 0.189731 0.533429 0.86881
275 1 0.159531 0.575468 0.744007
276 1 0.221057 0.568806 0.755464
321 1 0.00191948 0.609261 0.870176
327 1 0.034356 0.642165 0.74476
259 1 0.0987104 0.642256 0.997456
322 1 0.0657329 0.606987 0.875617
331 1 0.0985491 0.646172 0.749403
323 1 0.128871 0.606638 0.862538
262 1 0.159941 0.644112 0.992043
324 1 0.191724 0.60555 0.867124
335 1 0.162518 0.647928 0.756059
339 1 0.225431 0.639753 0.757426
310 1 0.0380289 0.708449 0.998454
326 1 0.0039658 0.679133 0.868055
330 1 0.0369637 0.714131 0.738403
385 1 0.0090207 0.748045 0.879947
313 1 0.0951221 0.713088 0.990563
329 1 0.0665485 0.67576 0.865197
334 1 0.0957881 0.715148 0.749465
333 1 0.12902 0.678365 0.879531
387 1 0.129728 0.748656 0.875986
337 1 0.194669 0.67766 0.88599
338 1 0.164131 0.716895 0.755004
340 1 0.22493 0.712492 0.761482
312 1 0.036494 0.789786 0.999913
390 1 0.00133899 0.82099 0.869296
391 1 0.0358987 0.789288 0.756485
315 1 0.096676 0.785041 0.988816
386 1 0.0662033 0.752202 0.868541
393 1 0.0678507 0.824094 0.874801
395 1 0.09546 0.784251 0.738
397 1 0.12858 0.821672 0.870651
388 1 0.192629 0.752963 0.884118
399 1 0.160453 0.785262 0.754345
401 1 0.19054 0.823018 0.891632
403 1 0.224451 0.791661 0.765357
394 1 0.0368787 0.858331 0.758255
441 3 0.00634762 0.892778 0.875
398 1 0.0991758 0.857651 0.752901
442 3 0.068036 0.892778 0.875
443 3 0.129724 0.892778 0.875
402 1 0.158309 0.857592 0.754021
444 3 0.191413 0.892778 0.875
404 1 0.22327 0.857158 0.75629
446 3 0.00634762 0.964192 0.875
447 3 0.0371918 0.928485 0.75
450 3 0.0371918 0.999899 0.75
449 3 0.068036 0.964192 0.875
451 3 0.0988802 0.928485 0.75
454 3 0.0988802 0.999899 0.75
453 3 0.129724 0.964192 0.875
455 3 0.160569 0.928485 0.75
457 3 0.191413 0.964192 0.875
458 3 0.160569 0.999899 0.75
460 3 0.222257 0.999899 0.75
459 3 0.222257 0.928485 0.75
465 2 0.283945 0.000100995 0.25
469 2 0.253101 0.0358081 0.125
470 2 0.283945 0.000100995 0
472 2 0.283945 0.0715151 0
503 2 0.283945 0.0715151 0.25
466 2 0.345634 0.000100995 0.25
471 2 0.31479 0.0358081 0.125
473 2 0.345634 0.000100995 0
475 2 0.345634 0.0715151 0
507 2 0.345634 0.0715151 0.25
474 2 0.376478 0.0358081 0.125
467 2 0.407322 0.000100995 0.25
476 2 0.407322 0.000100995 0
477 2 0.438166 0.0358081 0.125
478 2 0.407322 0.0715151 0
511 2 0.407322 0.0715151 0.25
468 2 0.469011 0.000100995 0.25
479 2 0.469011 0.000100995 0
480 2 0.469011 0.0715151 0
515 2 0.469011 0.0715151 0.25
673 2 0.499855 0.0358081 0.125
501 2 0.253101 0.107222 0.125
506 1 0.281064 0.143745 0.250735
504 2 0.31479 0.107222 0.125
510 1 0.346031 0.146045 0.240696
508 2 0.376478 0.107222 0.125
512 2 0.438166 0.107222 0.125
517 1 0.253844 0.183773 0.128373
567 1 0.284855 0.218987 0.243362
519 1 0.312603 0.181923 0.120024
563 1 0.287049 0.291383 0.00614734
564 1 0.254716 0.325892 0.114635
565 1 0.253723 0.257057 0.117434
568 1 0.284622 0.290583 0.246398
528 1 0.255407 0.392864 0.121468
526 1 0.253241 0.45931 0.13056
485 2 0.253101 0.0358081 0.375
486 2 0.253101 0.0358081 0.625
487 2 0.283945 0.000100995 0.5
490 2 0.283945 0.0715151 0.5
488 2 0.31479 0.0358081 0.375
489 2 0.31479 0.0358081 0.625
491 2 0.345634 0.000100995 0.5
494 2 0.345634 0.0715151 0.5
492 2 0.376478 0.0358081 0.375
493 2 0.376478 0.0358081 0.625
495 2 0.407322 0.000100995 0.5
496 2 0.438166 0.0358081 0.375
497 2 0.438166 0.0358081 0.625
498 2 0.407322 0.0715151 0.5
499 2 0.469011 0.000100995 0.5
500 2 0.469011 0.0715151 0.5
690 2 0.499855 0.0358081 0.375
691 2 0.499855 0.0358081 0.625
502 2 0.253101 0.107222 0.375
533 2 0.253101 0.107222 0.625
551 1 0.283839 0.139906 0.495088
505 2 0.31479 0.107222 0.375
536 2 0.31479 0.107222 0.625
555 1 0.346015 0.142561 0.48774
509 2 0.376478 0.107222 0.375
540 2 0.376478 0.107222 0.625
513 2 0.438166 0.107222 0.375
544 2 0.438166 0.107222 0.625
550 1 0.25225 0.174894 0.627272
554 1 0.283285 0.211767 0.494172
560 1 0.252541 0.245204 0.607749
549 1 0.2531 0.179574 0.373166
552 1 0.312644 0.177384 0.3643
553 1 0.316348 0.18236 0.628713
546 1 0.28295 0.27889 0.499363
548 1 0.257227 0.320095 0.623296
556 1 0.255359 0.331583 0.371432
566 1 0.251681 0.252138 0.359126
524 1 0.252692 0.395754 0.628721
527 1 0.251244 0.402791 0.372153
516 1 0.25688 0.467701 0.638708
481 2 0.283945 0.000100995 0.75
529 2 0.253101 0.0358081 0.875
535 2 0.283945 0.0715151 0.75
482 2 0.345634 0.000100995 0.75
530 2 0.31479 0.0358081 0.875
539 2 0.345634 0.0715151 0.75
531 2 0.376478 0.0358081 0.875
483 2 0.407322 0.000100995 0.75
532 2 0.438166 0.0358081 0.875
543 2 0.407322 0.0715151 0.75
484 2 0.469011 0.000100995 0.75
547 2 0.469011 0.0715151 0.75
739 2 0.499855 0.0358081 0.875
518 1 0.284044 0.147085 0.999465
534 2 0.253101 0.107222 0.875
538 1 0.285856 0.141057 0.747726
521 1 0.344466 0.143194 0.997164
537 2 0.31479 0.107222 0.875
542 1 0.34421 0.143262 0.751689
541 2 0.376478 0.107222 0.875
545 2 0.438166 0.107222 0.875
520 1 0.285331 0.22272 0.992765
558 1 0.283599 0.207962 0.754295
562 1 0.253124 0.17634 0.878645
559 1 0.250266 0.247804 0.880969
561 1 0.31683 0.188783 0.874263
557 1 0.28282 0.273548 0.753129
525 1 0.256504 0.319358 0.873921
523 1 0.253128 0.388564 0.872966
514 1 0.255235 0.45675 0.879302
581 1 0.252076 0.602235 0.138923
621 1 0.258324 0.677609 0.152413
626 1 0.285748 0.718232 0.267497
637 1 0.253195 0.748089 0.13194
640 1 0.284419 0.786789 0.0202937
662 1 0.285973 0.787591 0.268917
664 1 0.252838 0.819927 0.145234
661 1 0.316079 0.817566 0.135609
655 1 0.284779 0.855555 0.00826786
656 3 0.253101 0.892778 0.125
659 1 0.283927 0.857611 0.257435
650 1 0.347262 0.857433 0.00233501
652 3 0.31479 0.892778 0.125
657 1 0.3466 0.858605 0.256949
648 3 0.376478 0.892778 0.125
600 3 0.283945 0.999899 0
613 3 0.283945 0.999899 0.25
616 3 0.283945 0.928485 0.25
618 3 0.253101 0.964192 0.125
651 3 0.283945 0.928485 0
599 3 0.345634 0.999899 0
609 3 0.345634 0.999899 0.25
612 3 0.345634 0.928485 0.25
615 3 0.31479 0.964192 0.125
647 3 0.345634 0.928485 0
611 3 0.376478 0.964192 0.125
598 3 0.407322 0.999899 0
603 3 0.407322 0.999899 0.25
607 3 0.438166 0.964192 0.125
608 3 0.407322 0.928485 0.25
646 3 0.407322 0.928485 0
597 3 0.469011 0.999899 0
601 3 0.469011 0.999899 0.25
602 3 0.469011 0.928485 0.25
645 3 0.469011 0.928485 0
828 3 0.499855 0.964192 0.125
570 1 0.252191 0.543651 0.376494
593 1 0.253036 0.538993 0.639312
605 1 0.252859 0.611845 0.379648
606 1 0.257716 0.605622 0.621375
622 1 0.251874 0.681117 0.383344
653 1 0.255778 0.676255 0.650323
666 1 0.283513 0.712863 0.506454
668 1 0.252953 0.751288 0.376339
643 1 0.257818 0.820228 0.645108
663 1 0.255446 0.81996 0.404752
665 1 0.289104 0.779703 0.529234
667 1 0.253024 0.751846 0.633215
639 1 0.314278 0.824126 0.629367
660 1 0.314347 0.825164 0.388653
631 1 0.28327 0.859026 0.504834
632 3 0.253101 0.892778 0.625
633 3 0.253101 0.892778 0.375
627 1 0.344496 0.856966 0.509966
629 3 0.31479 0.892778 0.625
630 3 0.31479 0.892778 0.375
624 3 0.376478 0.892778 0.625
625 3 0.376478 0.892778 0.375
574 3 0.283945 0.999899 0.5
591 3 0.253101 0.964192 0.625
617 3 0.253101 0.964192 0.375
628 3 0.283945 0.928485 0.5
573 3 0.345634 0.999899 0.5
588 3 0.31479 0.964192 0.625
614 3 0.31479 0.964192 0.375
623 3 0.345634 0.928485 0.5
584 3 0.376478 0.964192 0.625
610 3 0.376478 0.964192 0.375
572 3 0.407322 0.999899 0.5
579 3 0.438166 0.964192 0.625
604 3 0.438166 0.964192 0.375
620 3 0.407322 0.928485 0.5
571 3 0.469011 0.999899 0.5
619 3 0.469011 0.928485 0.5
827 3 0.499855 0.964192 0.375
800 3 0.499855 0.964192 0.625
594 1 0.255484 0.525339 0.881144
649 1 0.254211 0.594974 0.890937
638 1 0.2847 0.719019 0.998222
654 1 0.257383 0.676637 0.908764
658 1 0.28642 0.715284 0.752868
644 1 0.252017 0.750712 0.881341
641 1 0.286776 0.785657 0.772334
642 1 0.256659 0.820271 0.897754
636 1 0.317425 0.820418 0.891441
596 3 0.253101 0.892778 0.875
635 1 0.284888 0.857263 0.760816
595 3 0.31479 0.892778 0.875
634 1 0.345373 0.857182 0.755672
592 3 0.376478 0.892778 0.875
586 3 0.283945 0.999899 0.75
589 3 0.283945 0.928485 0.75
590 3 0.253101 0.964192 0.875
582 3 0.345634 0.999899 0.75
585 3 0.345634 0.928485 0.75
587 3 0.31479 0.964192 0.875
583 3 0.376478 0.964192 0.875
580 3 0.407322 0.928485 0.75
578 3 0.438166 0.964192 0.875
577 3 0.407322 0.999899 0.75
576 3 0.469011 0.928485 0.75
575 3 0.469011 0.999899 0.75
799 3 0.499855 0.964192 0.875
669 2 0.530699 0.000100995 0.25
674 2 0.530699 0.000100995 0
676 2 0.530699 0.0715151 0
710 2 0.530699 0.0715151 0.25
670 2 0.592387 0.000100995 0.25
675 2 0.561543 0.0358081 0.125
677 2 0.592387 0.000100995 0
679 2 0.592387 0.0715151 0
714 2 0.592387 0.0715151 0.25
678 2 0.623231 0.0358081 0.125
671 2 0.654076 0.000100995 0.25
680 2 0.654076 0.000100995 0
681 2 0.68492 0.0358081 0.125
682 2 0.654076 0.0715151 0
718 2 0.654076 0.0715151 0.25
672 2 0.715764 0.000100995 0.25
683 2 0.715764 0.000100995 0
684 2 0.746608 0.0358081 0.125
685 2 0.715764 0.0715151 0
722 2 0.715764 0.0715151 0.25
711 2 0.561543 0.107222 0.125
715 2 0.623231 0.107222 0.125
719 2 0.68492 0.107222 0.125
721 1 0.653506 0.141447 0.237049
723 2 0.746608 0.107222 0.125
725 1 0.714364 0.141609 0.261334
734 1 0.684762 0.176944 0.120436
737 1 0.744112 0.178055 0.138489
738 1 0.71584 0.213194 0.012315
769 1 0.714372 0.2135 0.267121
768 1 0.747174 0.249459 0.128967
764 1 0.745266 0.326604 0.121577
765 1 0.718422 0.28369 0.00871593
766 1 0.718312 0.284836 0.244182
730 1 0.743418 0.396514 0.118018
728 1 0.742254 0.471504 0.151157
692 2 0.530699 0.000100995 0.5
695 2 0.530699 0.0715151 0.5
693 2 0.561543 0.0358081 0.375
694 2 0.561543 0.0358081 0.625
696 2 0.592387 0.000100995 0.5
699 2 0.592387 0.0715151 0.5
697 2 0.623231 0.0358081 0.375
698 2 0.623231 0.0358081 0.625
700 2 0.654076 0.000100995 0.5
701 2 0.68492 0.0358081 0.375
702 2 0.68492 0.0358081 0.625
703 2 0.654076 0.0715151 0.5
704 2 0.715764 0.000100995 0.5
705 2 0.746608 0.0358081 0.375
706 2 0.746608 0.0358081 0.625
707 2 0.715764 0.0715151 0.5
712 2 0.561543 0.107222 0.375
747 2 0.561543 0.107222 0.625
716 2 0.623231 0.107222 0.375
751 2 0.623231 0.107222 0.625
720 2 0.68492 0.107222 0.375
755 2 0.68492 0.107222 0.625
772 1 0.653782 0.142046 0.4961
724 2 0.746608 0.107222 0.375
759 2 0.746608 0.107222 0.625
776 1 0.715596 0.144434 0.499085
773 1 0.68319 0.178467 0.362405
774 1 0.681807 0.179117 0.612507
770 1 0.711473 0.221337 0.519318
771 1 0.746583 0.179457 0.653083
775 1 0.744135 0.18044 0.397576
749 1 0.746638 0.247811 0.631683
731 1 0.746977 0.321196 0.641912
735 1 0.719375 0.287487 0.498261
767 1 0.74798 0.252514 0.38248
732 1 0.747382 0.322288 0.369687
726 1 0.74511 0.390523 0.617902
729 1 0.744519 0.393072 0.379986
713 1 0.744145 0.469721 0.402855
709 1 0.748501 0.460868 0.641573
686 2 0.530699 0.000100995 0.75
746 2 0.530699 0.0715151 0.75
687 2 0.592387 0.000100995 0.75
740 2 0.561543 0.0358081 0.875
750 2 0.592387 0.0715151 0.75
741 2 0.623231 0.0358081 0.875
688 2 0.654076 0.000100995 0.75
742 2 0.68492 0.0358081 0.875
754 2 0.654076 0.0715151 0.75
689 2 0.715764 0.000100995 0.75
743 2 0.746608 0.0358081 0.875
758 2 0.715764 0.0715151 0.75
748 2 0.561543 0.107222 0.875
752 2 0.623231 0.107222 0.875
733 1 0.653754 0.142041 0.986958
756 2 0.68492 0.107222 0.875
757 1 0.652821 0.141294 0.745178
736 1 0.715409 0.142197 0.995983
760 2 0.746608 0.107222 0.875
761 1 0.714538 0.143666 0.7471
763 1 0.68206 0.178241 0.869392
762 1 0.747386 0.175673 0.894088
753 1 0.714487 0.210628 0.762647
745 1 0.747066 0.247418 0.869985
727 1 0.743234 0.324328 0.876136
744 1 0.716543 0.278202 0.753476
717 1 0.74789 0.393061 0.866565
708 1 0.743892 0.464479 0.889621
788 1 0.746716 0.541184 0.132155
802 1 0.744313 0.610528 0.100685
851 1 0.74312 0.682352 0.118577
853 1 0.712822 0.721252 0.260693
864 1 0.715422 0.720024 0.00198963
873 1 0.686599 0.822785 0.117999
865 1 0.745594 0.752139 0.131881
868 1 0.746016 0.823663 0.134271
869 1 0.716038 0.789799 0.257786
861 3 0.623231 0.892778 0.125
858 3 0.68492 0.892778 0.125
859 1 0.654054 0.856835 0.0020526
870 1 0.653507 0.854258 0.248634
855 3 0.746608 0.892778 0.125
863 1 0.71574 0.858982 0.253141
808 3 0.530699 0.999899 0
823 3 0.530699 0.999899 0.25
826 3 0.530699 0.928485 0.25
862 3 0.530699 0.928485 0
807 3 0.592387 0.999899 0
819 3 0.592387 0.999899 0.25
822 3 0.592387 0.928485 0.25
825 3 0.561543 0.964192 0.125
860 3 0.592387 0.928485 0
821 3 0.623231 0.964192 0.125
806 3 0.654076 0.999899 0
813 3 0.654076 0.999899 0.25
817 3 0.68492 0.964192 0.125
818 3 0.654076 0.928485 0.25
857 3 0.654076 0.928485 0
805 3 0.715764 0.999899 0
809 3 0.715764 0.999899 0.25
811 3 0.746608 0.964192 0.125
812 3 0.715764 0.928485 0.25
854 3 0.715764 0.928485 0
789 1 0.748184 0.538787 0.380335
815 1 0.747749 0.532335 0.619162
833 1 0.74377 0.611426 0.354107
834 1 0.748653 0.603626 0.612145
852 1 0.747138 0.68066 0.361655
877 1 0.717087 0.714091 0.509923
880 1 0.746985 0.677743 0.62008
875 1 0.749634 0.749641 0.622199
849 1 0.685771 0.821942 0.61389
872 1 0.683884 0.821227 0.361488
845 1 0.748344 0.821299 0.620371
874 1 0.714052 0.783701 0.499155
867 1 0.748532 0.822505 0.380017
876 1 0.749602 0.753885 0.377915
840 3 0.623231 0.892778 0.625
841 3 0.623231 0.892778 0.375
836 3 0.68492 0.892778 0.625
837 3 0.68492 0.892778 0.375
838 1 0.652356 0.86012 0.494954
830 3 0.746608 0.892778 0.625
831 3 0.746608 0.892778 0.375
832 1 0.714951 0.854032 0.503077
780 3 0.530699 0.999899 0.5
842 3 0.530699 0.928485 0.5
779 3 0.592387 0.999899 0.5
797 3 0.561543 0.964192 0.625
824 3 0.561543 0.964192 0.375
839 3 0.592387 0.928485 0.5
793 3 0.623231 0.964192 0.625
820 3 0.623231 0.964192 0.375
778 3 0.654076 0.999899 0.5
787 3 0.68492 0.964192 0.625
814 3 0.68492 0.964192 0.375
835 3 0.654076 0.928485 0.5
777 3 0.715764 0.999899 0.5
783 3 0.746608 0.964192 0.625
810 3 0.746608 0.964192 0.375
829 3 0.715764 0.928485 0.5
816 1 0.745663 0.538917 0.882255
871 1 0.746737 0.60671 0.853231
878 1 0.718189 0.719408 0.750325
879 1 0.745737 0.680251 0.87993
848 1 0.685398 0.821718 0.861244
866 1 0.71662 0.788567 0.995127
850 1 0.747779 0.754701 0.88192
846 1 0.718094 0.787637 0.74598
844 1 0.747233 0.823191 0.876281
804 3 0.623231 0.892778 0.875
803 3 0.68492 0.892778 0.875
847 1 0.653276 0.857233 0.74571
856 1 0.71527 0.858425 0.991133
801 3 0.746608 0.892778 0.875
843 1 0.718541 0.859662 0.747794
795 3 0.530699 0.999899 0.75
798 3 0.530699 0.928485 0.75
796 3 0.561543 0.964192 0.875
794 3 0.592387 0.928485 0.75
791 3 0.592387 0.999899 0.75
792 3 0.623231 0.964192 0.875
790 3 0.654076 0.928485 0.75
786 3 0.68492 0.964192 0.875
785 3 0.654076 0.999899 0.75
784 3 0.715764 0.928485 0.75
782 3 0.746608 0.964192 0.875
781 3 0.715764 0.999899 0.75
881 2 0.777452 0.000100995 0.25
885 2 0.777452 0.000100995 0
887 2 0.777452 0.0715151 0
917 2 0.777452 0.0715151 0.25
882 2 0.839141 0.000100995 0.25
886 2 0.808297 0.0358081 0.125
888 2 0.839141 0.000100995 0
890 2 0.839141 0.0715151 0
921 2 0.839141 0.0715151 0.25
889 2 0.869985 0.0358081 0.125
883 2 0.900829 0.000100995 0.25
891 2 0.900829 0.000100995 0
892 2 0.931673 0.0358081 0.125
893 2 0.900829 0.0715151 0
925 2 0.900829 0.0715151 0.25
884 2 0.962518 0.000100995 0.25
894 2 0.962518 0.000100995 0
895 2 0.993362 0.0358081 0.125
896 2 0.962518 0.0715151 0
929 2 0.962518 0.0715151 0.25
920 1 0.777671 0.141645 0.248161
933 1 0.77725 0.140637 0.00474672
918 2 0.808297 0.107222 0.125
924 1 0.839115 0.142497 0.245409
922 2 0.869985 0.107222 0.125
926 2 0.931673 0.107222 0.125
928 1 0.902316 0.138842 0.242255
930 2 0.993362 0.107222 0.125
932 1 0.962849 0.140998 0.242195
935 1 0.776224 0.212687 0.00661944
981 1 0.774663 0.213827 0.266376
934 1 0.807678 0.176275 0.126401
938 1 0.839302 0.214047 0.00334295
985 1 0.839 0.215244 0.247713
982 1 0.806431 0.249179 0.121593
937 1 0.870065 0.177056 0.111572
986 1 0.872869 0.249311 0.121082
940 1 0.931314 0.17618 0.10878
989 1 0.900633 0.210377 0.236194
990 1 0.930296 0.248964 0.110613
943 1 0.993673 0.186929 0.110086
993 1 0.96274 0.216795 0.242343
984 1 0.777049 0.287927 0.241447
988 1 0.839243 0.284372 0.243641
998 1 0.806526 0.321774 0.119311
1000 1 0.842096 0.287278 0.00420276
1001 1 0.871689 0.321717 0.116116
992 1 0.90054 0.283071 0.242649
1004 1 0.928438 0.319304 0.119933
994 1 0.995189 0.258035 0.144347
996 1 0.959924 0.287886 0.238463
1007 1 0.994005 0.324796 0.0983099
999 1 0.776029 0.357294 0.00284599
1045 1 0.777 0.359859 0.243256
1002 1 0.838748 0.35741 0.00113912
1046 1 0.807651 0.396103 0.123769
1049 1 0.838485 0.356231 0.245995
1050 1 0.871599 0.395553 0.122144
1053 1 0.90078 0.355404 0.244598
1054 1 0.929343 0.39295 0.129373
1057 1 0.96102 0.353815 0.241151
1058 1 0.989006 0.392295 0.140056
1048 1 0.774409 0.431965 0.253345