ITEM: TIMESTEP
0
ITEM: NUMBER OF ATOMS
1784
ITEM: BOX BOUNDS ss ss pp
-3.5837321014793411e-01 5.6643775098172199e+01
-3.5200000000000006e-03 3.4849742176873065e+01
0.0000000000000000e+00 9.9560630400000001e+00
ITEM: ATOMS id type xs ys zs
1 2 0.037163 0.000100995 0.25
5 2 0.00628701 0.0358081 0.125
6 2 0.037163 0.000100995 0
8 2 0.037163 0.0715151 0
39 2 0.037163 0.0715151 0.25
2 2 0.0989151 0.000100995 0.25
7 2 0.0680391 0.0358081 0.125
9 2 0.0989151 0.000100995 0
11 2 0.0989151 0.0715151 0
43 2 0.0989151 0.0715151 0.25
10 2 0.129791 0.0358081 0.125
3 2 0.160667 0.000100995 0.25
12 2 0.160667 0.000100995 0
13 2 0.191543 0.0358081 0.125
14 2 0.160667 0.0715151 0
47 2 0.160667 0.0715151 0.25
4 2 0.222419 0.000100995 0.25
15 2 0.222419 0.000100995 0
16 2 0.222419 0.0715151 0
51 2 0.222419 0.0715151 0.25
37 2 0.00628701 0.107222 0.125
42 1 0.0367941 0.140461 0.250866
54 1 0.0365911 0.141363 0.00571023
40 2 0.0680391 0.107222 0.125
46 1 0.10039 0.143326 0.247689
44 2 0.129791 0.107222 0.125
48 2 0.191543 0.107222 0.125
50 1 0.160209 0.141769 0.256428
52 1 0.222393 0.143154 0.254957
53 1 0.00329499 0.174691 0.138769
56 1 0.0356291 0.209821 0.000624811
103 1 0.0367143 0.208893 0.251916
101 1 0.00738025 0.246497 0.122697
55 1 0.0688501 0.175813 0.125531
107 1 0.0995206 0.211557 0.254502
104 1 0.0648887 0.245561 0.110156
58 1 0.130486 0.17581 0.131027
108 1 0.129406 0.246525 0.11493
61 1 0.192622 0.179086 0.12302
62 1 0.161587 0.213429 0.00306798
111 1 0.162437 0.210395 0.25521
112 1 0.192201 0.249957 0.117498
115 1 0.223681 0.217774 0.251863
106 1 0.0386135 0.284302 0.239666
117 1 0.00455573 0.316405 0.121556
110 1 0.096544 0.280391 0.219568
119 1 0.0669361 0.32271 0.112185
122 1 0.126363 0.315097 0.113988
114 1 0.160371 0.280569 0.240279
125 1 0.189672 0.319255 0.116743
116 1 0.221767 0.288074 0.231318
120 1 0.0360142 0.359546 0.000575304
165 1 0.00620764 0.397892 0.117933
167 1 0.0366818 0.354797 0.240077
168 1 0.0654895 0.39331 0.11988
171 1 0.099022 0.357357 0.230955
172 1 0.130163 0.389666 0.120522
175 1 0.159008 0.351637 0.246193
176 1 0.188308 0.388617 0.121892
179 1 0.221887 0.358122 0.24199
170 1 0.0386914 0.427677 0.24685
181 1 0.00740202 0.467608 0.120594
174 1 0.0983869 0.430645 0.247824
183 1 0.0660024 0.47116 0.126237
185 1 0.0975127 0.42895 0.0112422
186 1 0.129651 0.461383 0.122183
178 1 0.160622 0.422378 0.261324
189 1 0.190376 0.460873 0.117284
231 1 0.159504 0.49649 0.241706
180 1 0.221229 0.427553 0.242014
191 1 0.222105 0.429236 0.00539801
232 1 0.221395 0.497225 0.245696
21 2 0.00628701 0.0358081 0.375
22 2 0.00628701 0.0358081 0.625
23 2 0.037163 0.000100995 0.5
26 2 0.037163 0.0715151 0.5
24 2 0.0680391 0.0358081 0.375
25 2 0.0680391 0.0358081 0.625
27 2 0.0989151 0.000100995 0.5
30 2 0.0989151 0.0715151 0.5
28 2 0.129791 0.0358081 0.375
29 2 0.129791 0.0358081 0.625
31 2 0.160667 0.000100995 0.5
32 2 0.191543 0.0358081 0.375
33 2 0.191543 0.0358081 0.625
34 2 0.160667 0.0715151 0.5
35 2 0.222419 0.000100995 0.5
36 2 0.222419 0.0715151 0.5
38 2 0.00628701 0.107222 0.375
69 2 0.00628701 0.107222 0.625
87 1 0.0370478 0.140165 0.504041
41 2 0.0680391 0.107222 0.375
72 2 0.0680391 0.107222 0.625
91 1 0.0982582 0.140887 0.496527
45 2 0.129791 0.107222 0.375
76 2 0.129791 0.107222 0.625
49 2 0.191543 0.107222 0.375
80 2 0.191543 0.107222 0.625
95 1 0.162409 0.144827 0.505598
99 1 0.222301 0.142107 0.504586
85 1 0.00352943 0.180618 0.386716
86 1 0.00801587 0.175934 0.645331
90 1 0.0368217 0.210909 0.489164
102 1 0.00966238 0.247915 0.363874
88 1 0.0673487 0.174161 0.378658
89 1 0.0676001 0.174444 0.623838
94 1 0.0993719 0.207516 0.498792
105 1 0.0673075 0.246116 0.352546
136 1 0.0670949 0.243532 0.607611
92 1 0.131008 0.174903 0.381274
93 1 0.131568 0.178104 0.628273
109 1 0.130767 0.243764 0.375127
140 1 0.129516 0.24545 0.6245
96 1 0.19474 0.178958 0.377457
97 1 0.195062 0.18021 0.634795
98 1 0.161759 0.215316 0.515079
100 1 0.224738 0.213923 0.500221
133 1 0.00840192 0.250559 0.617033
149 1 0.0050158 0.319115 0.374312
150 1 0.00974168 0.319122 0.612657
151 1 0.0382907 0.284298 0.484072
152 1 0.0698744 0.318365 0.351092
153 1 0.0685787 0.316086 0.608912
155 1 0.0975293 0.276317 0.471907
156 1 0.12868 0.316345 0.357444
157 1 0.127592 0.314278 0.616551
113 1 0.19129 0.251968 0.371175
144 1 0.194268 0.250363 0.61334
159 1 0.160523 0.285418 0.492791
160 1 0.191058 0.322351 0.371405
161 1 0.194824 0.32107 0.619022
163 1 0.223157 0.288386 0.483644
154 1 0.0401464 0.353056 0.483275
166 1 0.00827577 0.387414 0.378627
197 1 0.00794429 0.389407 0.618858
158 1 0.0985987 0.353412 0.482766
169 1 0.0688301 0.390853 0.357731
200 1 0.0695376 0.387395 0.612372
173 1 0.128294 0.392445 0.37285
204 1 0.128072 0.391738 0.619202
162 1 0.159371 0.356881 0.495726
177 1 0.191309 0.393889 0.383086
208 1 0.190318 0.391428 0.628229
164 1 0.223681 0.361229 0.501406
213 1 0.00873707 0.45967 0.357471
214 1 0.00121522 0.460672 0.614199
215 1 0.0397534 0.42402 0.501629
218 1 0.0345903 0.498027 0.504182
216 1 0.067274 0.464821 0.385345
217 1 0.0681316 0.464042 0.628941
219 1 0.09866 0.427681 0.49896
222 1 0.0990219 0.498152 0.481348
220 1 0.131249 0.46377 0.372164
221 1 0.128586 0.463197 0.611294
223 1 0.159987 0.429865 0.508471
224 1 0.190809 0.462883 0.381517
225 1 0.189718 0.466503 0.633002
227 1 0.221983 0.432458 0.508661
17 2 0.037163 0.000100995 0.75
65 2 0.00628701 0.0358081 0.875
71 2 0.037163 0.0715151 0.75
18 2 0.0989151 0.000100995 0.75
66 2 0.0680391 0.0358081 0.875
75 2 0.0989151 0.0715151 0.75
67 2 0.129791 0.0358081 0.875
19 2 0.160667 0.000100995 0.75
68 2 0.191543 0.0358081 0.875
79 2 0.160667 0.0715151 0.75
20 2 0.222419 0.000100995 0.75
83 2 0.222419 0.0715151 0.75
70 2 0.00628701 0.107222 0.875
74 1 0.0375596 0.140827 0.761309
73 2 0.0680391 0.107222 0.875
78 1 0.0994096 0.14301 0.746839
57 1 0.101044 0.142633 0.990831
77 2 0.129791 0.107222 0.875
60 1 0.160735 0.145165 0.989707
81 2 0.191543 0.107222 0.875
82 1 0.162324 0.144375 0.751814
63 1 0.223072 0.144061 0.999207
84 1 0.221205 0.139829 0.757348
129 1 0.00535144 0.175463 0.889944
135 1 0.035891 0.214906 0.749573
59 1 0.0971511 0.210958 0.999491
130 1 0.0667512 0.177032 0.876014
139 1 0.0980454 0.210575 0.745791
137 1 0.0662247 0.247795 0.862791
131 1 0.131251 0.179606 0.880792
141 1 0.125694 0.247176 0.874763
132 1 0.192233 0.179756 0.881089
143 1 0.162847 0.215225 0.75869
64 1 0.222996 0.217533 0.996382
147 1 0.225464 0.215901 0.749716
118 1 0.0349 0.28395 0.986998
134 1 0.0036771 0.25463 0.858294
138 1 0.0383825 0.28578 0.740534
193 1 0.00554686 0.326723 0.86437
121 1 0.0932495 0.284689 0.982892
142 1 0.097019 0.280596 0.732167
194 1 0.0656893 0.322186 0.861603
195 1 0.125018 0.316282 0.861329
124 1 0.158812 0.282941 0.984718
145 1 0.19382 0.251708 0.863466
146 1 0.1612 0.284264 0.739952
196 1 0.192005 0.320697 0.858863
127 1 0.221665 0.28999 0.991487
148 1 0.225966 0.287518 0.740234
198 1 0.0075567 0.3971 0.871601
199 1 0.037499 0.359175 0.743748
123 1 0.0967389 0.354938 0.992163
201 1 0.0668258 0.396081 0.872855
203 1 0.0959647 0.355144 0.738561
205 1 0.12761 0.387213 0.867197
126 1 0.158099 0.351122 0.994199
207 1 0.156989 0.352756 0.737886
209 1 0.189784 0.388501 0.869743
128 1 0.223003 0.359517 0.994237
211 1 0.22444 0.35692 0.745571
182 1 0.0365084 0.433547 0.996043
233 1 0.00155975 0.467992 0.859835
202 1 0.035612 0.431442 0.742488
238 1 0.0996962 0.498507 0.741539
234 1 0.0678432 0.466071 0.871752
206 1 0.0984554 0.426241 0.74859
235 1 0.12806 0.46301 0.870329
239 1 0.159042 0.498767 0.746354
188 1 0.158468 0.42315 0.993974
210 1 0.159543 0.424758 0.745209
236 1 0.192335 0.46179 0.869864
190 1 0.160064 0.495628 0.992278
212 1 0.22262 0.425532 0.757024
241 1 0.00307482 0.539201 0.137003
245 1 0.037655 0.572261 0.25695
254 1 0.0333571 0.571671 0.00107623
229 1 0.0356856 0.503145 0.250096
243 1 0.0656961 0.537588 0.108194
230 1 0.0992713 0.501886 0.241306
248 1 0.101352 0.57106 0.230358
246 1 0.13013 0.532301 0.101692
249 1 0.189897 0.534613 0.117053
251 1 0.159233 0.574207 0.227772
252 1 0.22102 0.568306 0.24797
192 1 0.22249 0.502559 0.000469798
253 1 0.00204497 0.607816 0.121896
256 1 0.0348041 0.639836 0.000869876
295 1 0.0362118 0.640426 0.241792
255 1 0.0688172 0.607266 0.123749
299 1 0.100173 0.642825 0.255231
258 1 0.129758 0.607374 0.10937
261 1 0.190193 0.608219 0.116091
303 1 0.158468 0.645919 0.237052
264 1 0.221217 0.641781 0.00283154
307 1 0.220346 0.644319 0.260531
293 1 0.00367919 0.67496 0.120617
298 1 0.0369714 0.711077 0.244659
309 1 0.00790701 0.748298 0.113516
296 1 0.0669737 0.676936 0.11901
302 1 0.096497 0.714786 0.236552
300 1 0.127833 0.681802 0.113506
314 1 0.126423 0.749845 0.116144
304 1 0.189304 0.678252 0.126682
306 1 0.157509 0.717998 0.253748
308 1 0.220128 0.714497 0.25578
319 1 0.220184 0.71357 0.00906748
357 1 0.00332061 0.821622 0.116623
359 1 0.0375503 0.788098 0.24148
311 1 0.0663679 0.750562 0.103958
360 1 0.0675445 0.824704 0.123198
363 1 0.0961786 0.784702 0.238456
364 1 0.127609 0.820644 0.121224
317 1 0.190226 0.754633 0.130849
318 1 0.158956 0.785995 0.00117459
367 1 0.158789 0.787741 0.24644
368 1 0.191271 0.821871 0.129424
320 1 0.223207 0.785142 0.00544619
371 1 0.22116 0.785191 0.250282
362 1 0.0368358 0.860299 0.240804
373 3 0.00628701 0.892778 0.125
374 1 0.036039 0.856661 0.000967287
366 1 0.0984994 0.857117 0.255494
375 3 0.0680391 0.892778 0.125
377 1 0.0984425 0.858218 0.00545384
378 3 0.129791 0.892778 0.125
370 1 0.159857 0.85664 0.251475
380 1 0.160284 0.85682 0.0039511
381 3 0.191543 0.892778 0.125
372 1 0.221473 0.858202 0.247517
383 1 0.22271 0.857558 0.00320027
376 3 0.037163 0.928485 0
421 3 0.00628701 0.964192 0.125
423 3 0.037163 0.928485 0.25
426 3 0.037163 0.999899 0.25
437 3 0.037163 0.999899 0
379 3 0.0989151 0.928485 0
424 3 0.0680391 0.964192 0.125
427 3 0.0989151 0.928485 0.25
430 3 0.0989151 0.999899 0.25
438 3 0.0989151 0.999899 0
428 3 0.129791 0.964192 0.125
382 3 0.160667 0.928485 0
431 3 0.160667 0.928485 0.25
432 3 0.191543 0.964192 0.125
434 3 0.160667 0.999899 0.25
439 3 0.160667 0.999899 0
384 3 0.222419 0.928485 0
435 3 0.222419 0.928485 0.25
436 3 0.222419 0.999899 0.25
440 3 0.222419 0.999899 0
242 1 0.00322685 0.5304 0.386963
265 1 0.00691092 0.538501 0.614615
279 1 0.0372596 0.573689 0.498416
244 1 0.0690471 0.537671 0.366124
267 1 0.0686076 0.534822 0.617995
283 1 0.10026 0.571738 0.483647
247 1 0.13068 0.53526 0.359866
270 1 0.131935 0.537487 0.609348
250 1 0.18855 0.534699 0.367915
273 1 0.190238 0.537764 0.618718
287 1 0.16095 0.575605 0.496395
226 1 0.159264 0.501875 0.498231
291 1 0.22116 0.576368 0.500709
228 1 0.22079 0.503824 0.499186
277 1 0.00566223 0.60345 0.380447
278 1 0.00176861 0.612486 0.617147
282 1 0.0370553 0.645551 0.498047
280 1 0.0690857 0.608151 0.372047
281 1 0.0693724 0.607916 0.619937
286 1 0.0994428 0.646649 0.496468
284 1 0.131527 0.608387 0.379935
285 1 0.128665 0.608378 0.619522
288 1 0.190381 0.609181 0.362844
289 1 0.190718 0.610084 0.624125
290 1 0.16018 0.645389 0.506677
292 1 0.221296 0.647337 0.500221
294 1 0.0059521 0.67507 0.367768
325 1 0.00471459 0.683252 0.62483
341 1 0.0083983 0.749663 0.373322
343 1 0.0378087 0.713329 0.481342
297 1 0.0684405 0.678246 0.375273
328 1 0.066864 0.677538 0.619636
347 1 0.0963923 0.71689 0.493002
301 1 0.129342 0.682542 0.377795
332 1 0.129017 0.681296 0.632901
305 1 0.190054 0.681575 0.378531
336 1 0.193336 0.681536 0.626385
351 1 0.161547 0.713814 0.510283
355 1 0.220728 0.716178 0.492459
342 1 0.00500552 0.755293 0.632747
346 1 0.0356104 0.789174 0.492353
358 1 0.00454392 0.822707 0.37577
389 1 0.00631175 0.82398 0.622871
344 1 0.066558 0.750582 0.362386
345 1 0.0643543 0.751991 0.613529
350 1 0.0971005 0.786722 0.481658
361 1 0.0666407 0.82316 0.377673
392 1 0.066724 0.825039 0.622742
348 1 0.127897 0.75367 0.368749
349 1 0.129141 0.750608 0.624536
365 1 0.127032 0.823391 0.371235
396 1 0.128386 0.819699 0.624161
352 1 0.189081 0.751346 0.369018
353 1 0.192046 0.75466 0.62567
354 1 0.159601 0.786065 0.499534
369 1 0.189866 0.820628 0.380889
400 1 0.189718 0.824047 0.633756
356 1 0.22188 0.78562 0.49456
405 3 0.00628701 0.892778 0.375
406 3 0.00628701 0.892778 0.625
407 1 0.0358271 0.857487 0.501627
408 3 0.0680391 0.892778 0.375
409 3 0.0680391 0.892778 0.625
411 1 0.0984559 0.857473 0.501317
412 3 0.129791 0.892778 0.375
413 3 0.129791 0.892778 0.625
415 1 0.158429 0.857422 0.501152
416 3 0.191543 0.892778 0.375
417 3 0.191543 0.892778 0.625
419 1 0.222178 0.857291 0.495224
410 3 0.037163 0.928485 0.5
422 3 0.00628701 0.964192 0.375
445 3 0.00628701 0.964192 0.625
461 3 0.037163 0.999899 0.5
414 3 0.0989151 0.928485 0.5
425 3 0.0680391 0.964192 0.375
448 3 0.0680391 0.964192 0.625
462 3 0.0989151 0.999899 0.5
429 3 0.129791 0.964192 0.375
452 3 0.129791 0.964192 0.625
418 3 0.160667 0.928485 0.5
433 3 0.191543 0.964192 0.375
456 3 0.191543 0.964192 0.625
463 3 0.160667 0.999899 0.5
420 3 0.222419 0.928485 0.5
464 3 0.222419 0.999899 0.5
184 1 0.034341 0.503185 0.982483
266 1 9.88033e-05 0.53663 0.867765
269 1 0.0353232 0.571964 0.74735
237 1 0.0345412 0.500239 0.743062
257 1 0.0987116 0.569547 0.982042
268 1 0.0661842 0.53572 0.86146
272 1 0.09803 0.570152 0.733871
187 1 0.0978047 0.502527 0.992413
271 1 0.128416 0.535589 0.849834
260 1 0.159706 0.570354 0.980112
274 1 0.19053 0.534892 0.869213
275 1 0.159295 0.575229 0.743113
240 1 0.222474 0.502142 0.757963
263 1 0.221779 0.571134 0.998239
276 1 0.222518 0.570439 0.746045
321 1 0.0018878 0.609302 0.86902
327 1 0.0343717 0.642206 0.74354
259 1 0.0987963 0.642265 0.996246
322 1 0.0657582 0.607045 0.874455
331 1 0.0986144 0.646213 0.748077
323 1 0.128913 0.606694 0.861349
262 1 0.159782 0.643803 0.991121
324 1 0.191433 0.604346 0.865591
335 1 0.162258 0.647878 0.755028
339 1 0.224309 0.640064 0.746096
310 1 0.0380555 0.708501 0.997286
326 1 0.00393278 0.67915 0.866689
330 1 0.0369824 0.714153 0.737304
385 1 0.00896665 0.748062 0.878733
313 1 0.0951974 0.713113 0.989509
329 1 0.0665946 0.675847 0.864009
334 1 0.0958685 0.715172 0.748263
333 1 0.129077 0.678411 0.878485
387 1 0.129813 0.748733 0.874752
316 1 0.161233 0.714688 0.999803
337 1 0.192983 0.676204 0.881204
338 1 0.164063 0.716992 0.753864
340 1 0.222397 0.713447 0.7549
312 1 0.0364893 0.789791 0.998664
390 1 0.00132664 0.821051 0.868077
391 1 0.035902 0.789293 0.755363
315 1 0.0967435 0.785079 0.987772
386 1 0.0662639 0.75222 0.867384
393 1 0.0678692 0.824082 0.873534
395 1 0.0955168 0.784269 0.736806
397 1 0.128669 0.821773 0.86945
388 1 0.191309 0.754 0.881732
399 1 0.160499 0.785595 0.752699
401 1 0.190434 0.823256 0.890917
403 1 0.222193 0.789134 0.756605
394 1 0.0368854 0.8583 0.757564
441 3 0.00628701 0.892778 0.875
398 1 0.0992148 0.857662 0.752198
442 3 0.0680391 0.892778 0.875
443 3 0.129791 0.892778 0.875
402 1 0.158514 0.857573 0.753029
444 3 0.191543 0.892778 0.875
404 1 0.222774 0.857065 0.74951
446 3 0.00628701 0.964192 0.875
447 3 0.037163 0.928485 0.75
450 3 0.037163 0.999899 0.75
449 3 0.0680391 0.964192 0.875
451 3 0.0989151 0.928485 0.75
454 3 0.0989151 0.999899 0.75
453 3 0.129791 0.964192 0.875
455 3 0.160667 0.928485 0.75
457 3 0.191543 0.964192 0.875
458 3 0.160667 0.999899 0.75
460 3 0.222419 0.999899 0.75
459 3 0.222419 0.928485 0.75
465 2 0.284171 0.000100995 0.25
469 2 0.253295 0.0358081 0.125
470 2 0.284171 0.000100995 0
472 2 0.284171 0.0715151 0
503 2 0.284171 0.0715151 0.25
466 2 0.345923 0.000100995 0.25
471 2 0.315047 0.0358081 0.125
473 2 0.345923 0.000100995 0
475 2 0.345923 0.0715151 0
507 2 0.345923 0.0715151 0.25
474 2 0.376799 0.0358081 0.125
467 2 0.407675 0.000100995 0.25
476 2 0.407675 0.000100995 0
477 2 0.438551 0.0358081 0.125
478 2 0.407675 0.0715151 0
511 2 0.407675 0.0715151 0.25
468 2 0.469427 0.000100995 0.25
479 2 0.469427 0.000100995 0
480 2 0.469427 0.0715151 0
515 2 0.469427 0.0715151 0.25
501 2 0.253295 0.107222 0.125
506 1 0.281041 0.142426 0.24625
518 1 0.282921 0.144856 0.00110337
504 2 0.315047 0.107222 0.125
510 1 0.344687 0.144432 0.241367
521 1 0.346836 0.143231 0.000175501
508 2 0.376799 0.107222 0.125
512 2 0.438551 0.107222 0.125
514 1 0.4069 0.1437 0.242643
516 1 0.46807 0.140248 0.24962
517 1 0.252045 0.181497 0.12287
567 1 0.28295 0.215356 0.235694
519 1 0.313574 0.181442 0.114344
571 1 0.343741 0.217092 0.241957
522 1 0.378039 0.17812 0.120698
572 1 0.376802 0.249588 0.125019
525 1 0.439551 0.178607 0.127856
526 1 0.409181 0.215659 0.00247386
575 1 0.40934 0.212063 0.253443
579 1 0.466753 0.21369 0.246644
934 1 0.498491 0.179889 0.117302
565 1 0.255063 0.258116 0.124536
570 1 0.286993 0.293336 0.245355
581 1 0.254592 0.326773 0.122781
568 1 0.31241 0.251792 0.113338
574 1 0.346686 0.285087 0.233078
583 1 0.316889 0.323937 0.133405
586 1 0.376186 0.318676 0.110462
576 1 0.439383 0.251462 0.109524
578 1 0.408301 0.285919 0.243573
589 1 0.437185 0.324545 0.126527
580 1 0.468596 0.283479 0.238164
988 1 0.499644 0.253378 0.101214
584 1 0.286217 0.358984 0.00892313
629 1 0.254939 0.39641 0.134907
631 1 0.287666 0.364698 0.261819
632 1 0.317948 0.393627 0.144318
635 1 0.349296 0.357256 0.254221
636 1 0.377118 0.392065 0.127771
639 1 0.405995 0.354526 0.250454
634 1 0.287377 0.433061 0.269742
645 1 0.253618 0.464642 0.130623
646 1 0.287059 0.427513 0.0316023
648 1 0.285069 0.497754 0.0142417
638 1 0.347585 0.428816 0.280386
647 1 0.31738 0.467549 0.144678
649 1 0.345846 0.426388 0.0136356
650 1 0.376881 0.46006 0.141048
485 2 0.253295 0.0358081 0.375
486 2 0.253295 0.0358081 0.625
487 2 0.284171 0.000100995 0.5
490 2 0.284171 0.0715151 0.5
488 2 0.315047 0.0358081 0.375
489 2 0.315047 0.0358081 0.625
491 2 0.345923 0.000100995 0.5
494 2 0.345923 0.0715151 0.5
492 2 0.376799 0.0358081 0.375
493 2 0.376799 0.0358081 0.625
495 2 0.407675 0.000100995 0.5
496 2 0.438551 0.0358081 0.375
497 2 0.438551 0.0358081 0.625
498 2 0.407675 0.0715151 0.5
499 2 0.469427 0.000100995 0.5
500 2 0.469427 0.0715151 0.5
502 2 0.253295 0.107222 0.375
533 2 0.253295 0.107222 0.625
551 1 0.283813 0.139656 0.492416
505 2 0.315047 0.107222 0.375
536 2 0.315047 0.107222 0.625
555 1 0.346254 0.142926 0.48606
509 2 0.376799 0.107222 0.375
540 2 0.376799 0.107222 0.625
513 2 0.438551 0.107222 0.375
544 2 0.438551 0.107222 0.625
559 1 0.407843 0.143759 0.501976
563 1 0.470425 0.142664 0.504552
549 1 0.253168 0.178902 0.371793
550 1 0.252851 0.176605 0.625658
554 1 0.2839 0.21249 0.489134
597 1 0.255328 0.247669 0.613218
552 1 0.311983 0.177403 0.356367
553 1 0.314862 0.178627 0.624496
558 1 0.345139 0.211007 0.48184
569 1 0.313629 0.249951 0.370329
600 1 0.316056 0.247965 0.606433
556 1 0.376046 0.176446 0.367366
557 1 0.375097 0.179219 0.613411
573 1 0.377146 0.247412 0.367825
604 1 0.377476 0.249235 0.621809
560 1 0.439179 0.179832 0.3942
561 1 0.439978 0.180924 0.630502
562 1 0.407551 0.212603 0.506493
564 1 0.471929 0.21924 0.491504
614 1 0.255146 0.319988 0.621718
566 1 0.253342 0.253148 0.370417
613 1 0.253777 0.326473 0.365599
615 1 0.283988 0.285066 0.490819
616 1 0.318498 0.325508 0.372899
617 1 0.315929 0.320416 0.621642
619 1 0.347169 0.283426 0.491855
620 1 0.377787 0.31834 0.370936
621 1 0.378309 0.326782 0.612018
577 1 0.439095 0.2533 0.374358
608 1 0.441792 0.257689 0.608854
623 1 0.408864 0.288655 0.486502
624 1 0.439941 0.322735 0.368247
625 1 0.439336 0.326557 0.615417
627 1 0.473034 0.289734 0.487228
618 1 0.28424 0.356249 0.506916
630 1 0.252579 0.397655 0.376896
661 1 0.253799 0.39338 0.642402
622 1 0.348856 0.359508 0.500321
633 1 0.317061 0.394113 0.405037
664 1 0.314109 0.391538 0.63632
637 1 0.379706 0.393815 0.384251
668 1 0.380126 0.400341 0.623695
626 1 0.409213 0.362537 0.508377
676 1 0.252272 0.467091 0.382477
675 1 0.253165 0.462883 0.644177
674 1 0.282778 0.427807 0.50709
656 1 0.282716 0.499107 0.504434
673 1 0.317494 0.466686 0.401403
652 1 0.349497 0.498074 0.515816
655 1 0.346738 0.429138 0.521286
672 1 0.31373 0.462099 0.64175
653 1 0.380334 0.466026 0.665565
654 1 0.383285 0.462958 0.409411
481 2 0.284171 0.000100995 0.75
529 2 0.253295 0.0358081 0.875
535 2 0.284171 0.0715151 0.75
482 2 0.345923 0.000100995 0.75
530 2 0.315047 0.0358081 0.875
539 2 0.345923 0.0715151 0.75
531 2 0.376799 0.0358081 0.875
483 2 0.407675 0.000100995 0.75
532 2 0.438551 0.0358081 0.875
543 2 0.407675 0.0715151 0.75
484 2 0.469427 0.000100995 0.75
547 2 0.469427 0.0715151 0.75
534 2 0.253295 0.107222 0.875
538 1 0.283367 0.140419 0.745297
537 2 0.315047 0.107222 0.875
542 1 0.346544 0.142089 0.751044
541 2 0.376799 0.107222 0.875
524 1 0.408161 0.143928 0.994247
545 2 0.438551 0.107222 0.875
546 1 0.407645 0.144562 0.748585
527 1 0.470655 0.143211 0.997395
548 1 0.47086 0.145542 0.751534
520 1 0.285268 0.215674 0.987369
593 1 0.254224 0.179079 0.873896
599 1 0.283888 0.213301 0.747663
523 1 0.344249 0.214508 0.992791
594 1 0.313894 0.177566 0.865376
603 1 0.345587 0.21348 0.747429
601 1 0.314063 0.24855 0.852665
595 1 0.376606 0.177976 0.86864
605 1 0.375194 0.248501 0.878454
596 1 0.439564 0.178261 0.872583
607 1 0.40754 0.216594 0.756421
528 1 0.467715 0.217412 0.982928
611 1 0.473025 0.217053 0.737501
582 1 0.285748 0.290272 0.985437
598 1 0.254814 0.250389 0.868744
602 1 0.283964 0.284679 0.741771
657 1 0.255149 0.320869 0.885305
585 1 0.343853 0.282553 0.988225
606 1 0.345233 0.284761 0.736521
658 1 0.315433 0.318749 0.867165
659 1 0.375967 0.321389 0.867791
588 1 0.409219 0.28528 0.984483
609 1 0.440013 0.251287 0.8465
610 1 0.408342 0.287814 0.732431
660 1 0.438145 0.325298 0.871033
591 1 0.468355 0.290623 0.982376
612 1 0.473115 0.293555 0.726778
662 1 0.254104 0.392941 0.88993
663 1 0.283888 0.355885 0.748599
587 1 0.344828 0.352576 0.998369
665 1 0.315235 0.389944 0.881091
667 1 0.347784 0.360805 0.745314
669 1 0.37532 0.396182 0.87997
590 1 0.405069 0.357825 0.999576
671 1 0.406561 0.361426 0.755147
642 1 0.253602 0.465598 0.888143
666 1 0.284277 0.429451 0.775109
628 1 0.284558 0.498753 0.759395
670 1 0.345585 0.429034 0.764176
641 1 0.314195 0.463588 0.889225
592 1 0.344985 0.497111 0.774154
640 1 0.375845 0.466414 0.902248
677 1 0.252864 0.533108 0.126226
681 1 0.284353 0.575196 0.2592
690 1 0.28623 0.570133 0.0224725
644 1 0.284698 0.504093 0.259181
679 1 0.316866 0.538825 0.135408
651 1 0.347313 0.501015 0.0250187
684 1 0.350686 0.570567 0.246849
682 1 0.382697 0.530611 0.131936
643 1 0.350118 0.50161 0.261809
692 1 0.284397 0.640255 0.00809642
731 1 0.284846 0.643049 0.246605
689 1 0.250369 0.605971 0.140155
691 1 0.317986 0.60597 0.127074
735 1 0.348225 0.638312 0.257347
694 1 0.379413 0.604325 0.111894
698 1 0.409211 0.638349 0.00539925
739 1 0.409653 0.641841 0.250572
729 1 0.252117 0.676952 0.138082
734 1 0.287529 0.713389 0.249149
745 1 0.254876 0.745452 0.116035
732 1 0.317731 0.675039 0.128399
738 1 0.346422 0.712078 0.263055
747 1 0.317123 0.748091 0.120777
736 1 0.376471 0.675757 0.132467
750 1 0.375068 0.748078 0.129597
742 1 0.406096 0.712664 0.271308
752 1 0.406543 0.706269 0.0125072
753 1 0.436884 0.740871 0.144709
744 1 0.47129 0.711839 0.286857
755 1 0.47207 0.71353 0.0356945
793 1 0.254187 0.820344 0.11596
795 1 0.285017 0.783496 0.230088
796 1 0.314949 0.820996 0.120649
799 1 0.345511 0.78772 0.248199
800 1 0.375944 0.821183 0.124838
754 1 0.406606 0.779413 0.00896408
803 1 0.406173 0.781702 0.257239
804 1 0.436235 0.817796 0.121628
756 1 0.469104 0.781785 0.00189785
807 1 0.469491 0.784224 0.240186
1236 1 0.499663 0.819639 0.1109
798 1 0.283557 0.855005 0.246173
809 3 0.253295 0.892778 0.125
802 1 0.346613 0.857544 0.255743
811 3 0.315047 0.892778 0.125
814 3 0.376799 0.892778 0.125
806 1 0.408495 0.854762 0.249067
816 1 0.408765 0.855697 0.00718463
817 3 0.438551 0.892778 0.125
808 1 0.469268 0.856641 0.248349
812 3 0.284171 0.928485 0
857 3 0.253295 0.964192 0.125
859 3 0.284171 0.928485 0.25
862 3 0.284171 0.999899 0.25
873 3 0.284171 0.999899 0
815 3 0.345923 0.928485 0
860 3 0.315047 0.964192 0.125
863 3 0.345923 0.928485 0.25
866 3 0.345923 0.999899 0.25
874 3 0.345923 0.999899 0
864 3 0.376799 0.964192 0.125
818 3 0.407675 0.928485 0
867 3 0.407675 0.928485 0.25
868 3 0.438551 0.964192 0.125
870 3 0.407675 0.999899 0.25
875 3 0.407675 0.999899 0
820 3 0.469427 0.928485 0
871 3 0.469427 0.928485 0.25
872 3 0.469427 0.999899 0.25
876 3 0.469427 0.999899 0
678 1 0.253053 0.538366 0.375192
701 1 0.254471 0.535578 0.633761
715 1 0.285841 0.570566 0.502168
680 1 0.317479 0.536446 0.371251
703 1 0.316111 0.530754 0.617913
719 1 0.348526 0.566384 0.493953
683 1 0.383135 0.530738 0.393452
706 1 0.375053 0.53539 0.63955
714 1 0.254154 0.606077 0.618748
718 1 0.284699 0.646809 0.489836
713 1 0.251846 0.610073 0.377279
716 1 0.317572 0.607874 0.374101
717 1 0.316284 0.60751 0.617674
722 1 0.349776 0.642435 0.504391
720 1 0.381756 0.59943 0.373988
721 1 0.376758 0.601814 0.62385
726 1 0.407882 0.636197 0.514062
730 1 0.254057 0.68066 0.374604
761 1 0.253494 0.679054 0.622385
779 1 0.286381 0.717792 0.50165
778 1 0.252884 0.748904 0.616851
733 1 0.316323 0.67942 0.372882
764 1 0.315977 0.680035 0.626268
783 1 0.345416 0.715724 0.51072
737 1 0.378365 0.675844 0.386745
768 1 0.377041 0.680561 0.634286
784 1 0.377791 0.747759 0.391401
785 1 0.378415 0.749898 0.634357
787 1 0.414018 0.705716 0.50603
788 1 0.439223 0.749536 0.380128
791 1 0.469101 0.717816 0.535717
777 1 0.253783 0.751202 0.365453
782 1 0.284745 0.786755 0.490198
825 1 0.253013 0.821135 0.615482
794 1 0.25288 0.820191 0.364242
780 1 0.316706 0.753565 0.37274
781 1 0.315741 0.753013 0.628682
786 1 0.345952 0.788319 0.497357
797 1 0.314536 0.823299 0.368552
828 1 0.312677 0.824127 0.614631
801 1 0.377797 0.822428 0.379346
832 1 0.37895 0.820734 0.633845
789 1 0.436852 0.751437 0.644441
790 1 0.408979 0.783788 0.500427
805 1 0.439275 0.821857 0.369853
836 1 0.439336 0.820802 0.623559
1272 1 0.499715 0.826269 0.616081
792 1 0.469134 0.788647 0.486084
1218 1 0.499967 0.752429 0.374514
1219 1 0.498828 0.756322 0.640105
841 3 0.253295 0.892778 0.375
842 3 0.253295 0.892778 0.625
843 1 0.283624 0.858861 0.493977
844 3 0.315047 0.892778 0.375
845 3 0.315047 0.892778 0.625
847 1 0.346016 0.859357 0.499844
848 3 0.376799 0.892778 0.375
849 3 0.376799 0.892778 0.625
851 1 0.409151 0.857404 0.49613
852 3 0.438551 0.892778 0.375
853 3 0.438551 0.892778 0.625
855 1 0.468321 0.858903 0.497916
688 3 0.284171 0.999899 0.5
743 3 0.253295 0.964192 0.625
846 3 0.284171 0.928485 0.5
858 3 0.253295 0.964192 0.375
687 3 0.345923 0.999899 0.5
728 3 0.315047 0.964192 0.625
850 3 0.345923 0.928485 0.5
861 3 0.315047 0.964192 0.375
723 3 0.376799 0.964192 0.625
865 3 0.376799 0.964192 0.375
686 3 0.407675 0.999899 0.5
709 3 0.438551 0.964192 0.625
854 3 0.407675 0.928485 0.5
869 3 0.438551 0.964192 0.375
685 3 0.469427 0.999899 0.5
856 3 0.469427 0.928485 0.5
702 1 0.255593 0.533958 0.882045
705 1 0.288899 0.56814 0.749624
693 1 0.348066 0.568593 0.998551
704 1 0.314756 0.534627 0.894374
708 1 0.34453 0.570472 0.758519
707 1 0.379644 0.538722 0.875604
757 1 0.255491 0.602993 0.875734
763 1 0.286207 0.639426 0.747106
695 1 0.34691 0.638176 0.988494
758 1 0.314879 0.60385 0.885621
767 1 0.347438 0.641971 0.743312
759 1 0.377952 0.607294 0.868398
771 1 0.408688 0.643722 0.755473
746 1 0.284958 0.709503 0.992883
766 1 0.283127 0.711962 0.747862
821 1 0.251593 0.749779 0.880048
762 1 0.25355 0.677608 0.875387
749 1 0.346277 0.709495 0.998132
765 1 0.316175 0.672468 0.876706
770 1 0.346385 0.716237 0.758608
822 1 0.314231 0.745707 0.864046
769 1 0.377302 0.675653 0.871392
823 1 0.376995 0.747018 0.876053
774 1 0.40912 0.71225 0.764638
824 1 0.436441 0.744167 0.903662
776 1 0.467557 0.715543 0.782818
1267 1 0.499971 0.749581 0.888731
748 1 0.284617 0.78102 0.983052
826 1 0.255292 0.820246 0.869423
827 1 0.282031 0.781815 0.741301
751 1 0.346309 0.784462 0.991668
829 1 0.314031 0.820802 0.865143
831 1 0.345202 0.78859 0.745408
833 1 0.378756 0.820422 0.875808
835 1 0.408189 0.784253 0.762641
837 1 0.437442 0.816324 0.878973
1273 1 0.499145 0.82098 0.868012
839 1 0.467514 0.784184 0.757477
810 1 0.28362 0.855241 0.990929
775 3 0.253295 0.892778 0.875
830 1 0.28263 0.857702 0.746517
813 1 0.345872 0.855452 0.994432
773 3 0.315047 0.892778 0.875
834 1 0.345749 0.857709 0.759319
772 3 0.376799 0.892778 0.875
760 3 0.438551 0.892778 0.875
838 1 0.409185 0.854234 0.754667
819 1 0.4685 0.856776 0.992482
840 1 0.468167 0.85646 0.749295
725 3 0.284171 0.999899 0.75
740 3 0.284171 0.928485 0.75
741 3 0.253295 0.964192 0.875
711 3 0.345923 0.999899 0.75
724 3 0.345923 0.928485 0.75
727 3 0.315047 0.964192 0.875
712 3 0.376799 0.964192 0.875
710 3 0.407675 0.928485 0.75
700 3 0.438551 0.964192 0.875
699 3 0.407675 0.999899 0.75
697 3 0.469427 0.928485 0.75
696 3 0.469427 0.999899 0.75
877 2 0.53118 0.000100995 0.25
881 2 0.500303 0.0358081 0.125
882 2 0.53118 0.000100995 0
884 2 0.53118 0.0715151 0
918 2 0.53118 0.0715151 0.25
878 2 0.592932 0.000100995 0.25
883 2 0.562056 0.0358081 0.125
885 2 0.592932 0.000100995 0
887 2 0.592932 0.0715151 0
922 2 0.592932 0.0715151 0.25
886 2 0.623808 0.0358081 0.125
879 2 0.654684 0.000100995 0.25
888 2 0.654684 0.000100995 0
889 2 0.68556 0.0358081 0.125
890 2 0.654684 0.0715151 0
926 2 0.654684 0.0715151 0.25
880 2 0.716436 0.000100995 0.25
891 2 0.716436 0.000100995 0
892 2 0.747312 0.0358081 0.125
893 2 0.716436 0.0715151 0
930 2 0.716436 0.0715151 0.25
916 2 0.500303 0.107222 0.125
921 1 0.531731 0.141529 0.253518
935 1 0.53113 0.144594 0.000758954
919 2 0.562056 0.107222 0.125
925 1 0.593231 0.142292 0.240545
923 2 0.623808 0.107222 0.125
927 2 0.68556 0.107222 0.125
929 1 0.655766 0.143885 0.223281
931 2 0.747312 0.107222 0.125
933 1 0.716696 0.142891 0.244459
944 1 0.717481 0.143898 0.000198043
990 1 0.53206 0.214373 0.231446
936 1 0.562316 0.179548 0.119345
994 1 0.593339 0.215241 0.241589
991 1 0.561328 0.249751 0.122262
939 1 0.625418 0.180176 0.10205
942 1 0.687148 0.18 0.113258
998 1 0.657582 0.215488 0.234142
945 1 0.749347 0.176884 0.128251
1002 1 0.71832 0.212858 0.2504
1003 1 0.74896 0.248366 0.127693
993 1 0.530561 0.28258 0.237731
997 1 0.591604 0.287519 0.255666
1008 1 0.557654 0.327414 0.124882
1010 1 0.590362 0.289071 0.0157636